h 0.1 0 6 tcp 40 ------- 0 0.0 5.0 0 0
h 0.2 2 6 tcp 40 ------- 0 2.0 3.0 0 1
+ 0.2 0 6 tcp 40 ------- 0 0.0 5.0 0 0
- 0.2 0 6 tcp 40 ------- 0 0.0 5.0 0 0
+ 0.3 2 6 tcp 40 ------- 0 2.0 3.0 0 1
- 0.3 2 6 tcp 40 ------- 0 2.0 3.0 0 1
r 0.300009 6 4 tcp 40 ------- 0 0.0 5.0 0 0
+ 0.300009 4 5 tcp 40 ------- 0 0.0 5.0 0 0
- 0.300009 4 5 tcp 40 ------- 0 0.0 5.0 0 0
r 0.301329 4 5 tcp 40 ------- 0 0.0 5.0 0 0
+ 0.301329 5 4 ack 40 ------- 0 5.0 0.0 0 2
- 0.301329 5 4 ack 40 ------- 0 5.0 0.0 0 2
r 0.302649 5 4 ack 40 ------- 0 5.0 0.0 0 2
h 0.302649 4 6 ack 40 ------- 0 5.0 0.0 0 2
r 0.400009 6 3 tcp 40 ------- 0 2.0 3.0 0 1
h 0.400009 3 6 ack 40 ------- 0 3.0 2.0 0 3
+ 0.402649 4 6 ack 40 ------- 0 5.0 0.0 0 2
- 0.402649 4 6 ack 40 ------- 0 5.0 0.0 0 2
h 0.5 1 6 tcp 40 ------- 0 1.0 4.0 0 4
+ 0.500009 3 6 ack 40 ------- 0 3.0 2.0 0 3
- 0.500009 3 6 ack 40 ------- 0 3.0 2.0 0 3
r 0.502658 6 0 ack 40 ------- 0 5.0 0.0 0 2
h 0.502658 0 6 tcp 1040 ------- 0 0.0 5.0 1 5
h 0.502658 0 6 tcp 1040 ------- 0 0.0 5.0 2 6
+ 0.6 1 6 tcp 40 ------- 0 1.0 4.0 0 4
- 0.6 1 6 tcp 40 ------- 0 1.0 4.0 0 4
r 0.600018 6 2 ack 40 ------- 0 3.0 2.0 0 3
h 0.600018 2 6 tcp 1040 ------- 0 2.0 3.0 1 7
h 0.600018 2 6 tcp 1040 ------- 0 2.0 3.0 2 8
+ 0.602658 0 6 tcp 1040 ------- 0 0.0 5.0 1 5
- 0.602658 0 6 tcp 1040 ------- 0 0.0 5.0 1 5
+ 0.602658 0 6 tcp 1040 ------- 0 0.0 5.0 2 6
- 0.602744 0 6 tcp 1040 ------- 0 0.0 5.0 2 6
r 0.700009 6 4 tcp 40 ------- 0 1.0 4.0 0 4
h 0.700009 4 6 ack 40 ------- 0 4.0 1.0 0 9
+ 0.700018 2 6 tcp 1040 ------- 0 2.0 3.0 1 7
- 0.700018 2 6 tcp 1040 ------- 0 2.0 3.0 1 7
+ 0.700018 2 6 tcp 1040 ------- 0 2.0 3.0 2 8
- 0.700104 2 6 tcp 1040 ------- 0 2.0 3.0 2 8
r 0.702747 6 4 tcp 1040 ------- 0 0.0 5.0 1 5
+ 0.702747 4 5 tcp 1040 ------- 0 0.0 5.0 1 5
- 0.702747 4 5 tcp 1040 ------- 0 0.0 5.0 1 5
r 0.702832 6 4 tcp 1040 ------- 0 0.0 5.0 2 6
+ 0.702832 4 5 tcp 1040 ------- 0 0.0 5.0 2 6
- 0.711067 4 5 tcp 1040 ------- 0 0.0 5.0 2 6
r 0.712067 4 5 tcp 1040 ------- 0 0.0 5.0 1 5
+ 0.712067 5 4 ack 40 ------- 0 5.0 0.0 1 10
- 0.712067 5 4 ack 40 ------- 0 5.0 0.0 1 10
r 0.713387 5 4 ack 40 ------- 0 5.0 0.0 1 10
h 0.713387 4 6 ack 40 ------- 0 5.0 0.0 1 10
r 0.720387 4 5 tcp 1040 ------- 0 0.0 5.0 2 6
+ 0.720387 5 4 ack 40 ------- 0 5.0 0.0 2 11
- 0.720387 5 4 ack 40 ------- 0 5.0 0.0 2 11
r 0.721707 5 4 ack 40 ------- 0 5.0 0.0 2 11
h 0.721707 4 6 ack 40 ------- 0 5.0 0.0 2 11
+ 0.800009 4 6 ack 40 ------- 0 4.0 1.0 0 9
- 0.800009 4 6 ack 40 ------- 0 4.0 1.0 0 9
r 0.800107 6 3 tcp 1040 ------- 0 2.0 3.0 1 7
h 0.800107 3 6 ack 40 ------- 0 3.0 2.0 1 12
r 0.800192 6 3 tcp 1040 ------- 0 2.0 3.0 2 8
h 0.800192 3 6 ack 40 ------- 0 3.0 2.0 2 13
+ 0.813387 4 6 ack 40 ------- 0 5.0 0.0 1 10
- 0.813387 4 6 ack 40 ------- 0 5.0 0.0 1 10
+ 0.821707 4 6 ack 40 ------- 0 5.0 0.0 2 11
- 0.821707 4 6 ack 40 ------- 0 5.0 0.0 2 11
r 0.900018 6 1 ack 40 ------- 0 4.0 1.0 0 9
h 0.900018 1 6 tcp 1040 ------- 0 1.0 4.0 1 14
h 0.900018 1 6 tcp 1040 ------- 0 1.0 4.0 2 15
+ 0.900107 3 6 ack 40 ------- 0 3.0 2.0 1 12
- 0.900107 3 6 ack 40 ------- 0 3.0 2.0 1 12
+ 0.900192 3 6 ack 40 ------- 0 3.0 2.0 2 13
- 0.900192 3 6 ack 40 ------- 0 3.0 2.0 2 13
r 0.913396 6 0 ack 40 ------- 0 5.0 0.0 1 10
h 0.913396 0 6 tcp 1040 ------- 0 0.0 5.0 3 16
h 0.913396 0 6 tcp 1040 ------- 0 0.0 5.0 4 17
r 0.921716 6 0 ack 40 ------- 0 5.0 0.0 2 11
h 0.921716 0 6 tcp 1040 ------- 0 0.0 5.0 5 18
h 0.921716 0 6 tcp 1040 ------- 0 0.0 5.0 6 19
+ 1.000018 1 6 tcp 1040 ------- 0 1.0 4.0 1 14
- 1.000018 1 6 tcp 1040 ------- 0 1.0 4.0 1 14
+ 1.000018 1 6 tcp 1040 ------- 0 1.0 4.0 2 15
- 1.000104 1 6 tcp 1040 ------- 0 1.0 4.0 2 15
r 1.000116 6 2 ack 40 ------- 0 3.0 2.0 1 12
h 1.000116 2 6 tcp 1040 ------- 0 2.0 3.0 3 20
h 1.000116 2 6 tcp 1040 ------- 0 2.0 3.0 4 21
r 1.000201 6 2 ack 40 ------- 0 3.0 2.0 2 13
h 1.000201 2 6 tcp 1040 ------- 0 2.0 3.0 5 22
h 1.000201 2 6 tcp 1040 ------- 0 2.0 3.0 6 23
+ 1.013396 0 6 tcp 1040 ------- 0 0.0 5.0 3 16
- 1.013396 0 6 tcp 1040 ------- 0 0.0 5.0 3 16
+ 1.013396 0 6 tcp 1040 ------- 0 0.0 5.0 4 17
- 1.013481 0 6 tcp 1040 ------- 0 0.0 5.0 4 17
+ 1.021716 0 6 tcp 1040 ------- 0 0.0 5.0 5 18
- 1.021716 0 6 tcp 1040 ------- 0 0.0 5.0 5 18
+ 1.021716 0 6 tcp 1040 ------- 0 0.0 5.0 6 19
- 1.021801 0 6 tcp 1040 ------- 0 0.0 5.0 6 19
r 1.100107 6 4 tcp 1040 ------- 0 1.0 4.0 1 14
h 1.100107 4 6 ack 40 ------- 0 4.0 1.0 1 24
+ 1.100116 2 6 tcp 1040 ------- 0 2.0 3.0 3 20
- 1.100116 2 6 tcp 1040 ------- 0 2.0 3.0 3 20
+ 1.100116 2 6 tcp 1040 ------- 0 2.0 3.0 4 21
r 1.100192 6 4 tcp 1040 ------- 0 1.0 4.0 2 15
h 1.100192 4 6 ack 40 ------- 0 4.0 1.0 2 25
- 1.100201 2 6 tcp 1040 ------- 0 2.0 3.0 4 21
+ 1.100201 2 6 tcp 1040 ------- 0 2.0 3.0 5 22
+ 1.100201 2 6 tcp 1040 ------- 0 2.0 3.0 6 23
- 1.100286 2 6 tcp 1040 ------- 0 2.0 3.0 5 22
- 1.100372 2 6 tcp 1040 ------- 0 2.0 3.0 6 23
r 1.113484 6 4 tcp 1040 ------- 0 0.0 5.0 3 16
+ 1.113484 4 5 tcp 1040 ------- 0 0.0 5.0 3 16
- 1.113484 4 5 tcp 1040 ------- 0 0.0 5.0 3 16
r 1.113569 6 4 tcp 1040 ------- 0 0.0 5.0 4 17
+ 1.113569 4 5 tcp 1040 ------- 0 0.0 5.0 4 17
r 1.121804 6 4 tcp 1040 ------- 0 0.0 5.0 5 18
+ 1.121804 4 5 tcp 1040 ------- 0 0.0 5.0 5 18
- 1.121804 4 5 tcp 1040 ------- 0 0.0 5.0 4 17
r 1.121889 6 4 tcp 1040 ------- 0 0.0 5.0 6 19
+ 1.121889 4 5 tcp 1040 ------- 0 0.0 5.0 6 19
r 1.122804 4 5 tcp 1040 ------- 0 0.0 5.0 3 16
+ 1.122804 5 4 ack 40 ------- 0 5.0 0.0 3 26
- 1.122804 5 4 ack 40 ------- 0 5.0 0.0 3 26
r 1.124124 5 4 ack 40 ------- 0 5.0 0.0 3 26
h 1.124124 4 6 ack 40 ------- 0 5.0 0.0 3 26
- 1.130124 4 5 tcp 1040 ------- 0 0.0 5.0 5 18
r 1.131124 4 5 tcp 1040 ------- 0 0.0 5.0 4 17
+ 1.131124 5 4 ack 40 ------- 0 5.0 0.0 4 27
- 1.131124 5 4 ack 40 ------- 0 5.0 0.0 4 27
r 1.132444 5 4 ack 40 ------- 0 5.0 0.0 4 27
h 1.132444 4 6 ack 40 ------- 0 5.0 0.0 4 27
- 1.138444 4 5 tcp 1040 ------- 0 0.0 5.0 6 19
r 1.139444 4 5 tcp 1040 ------- 0 0.0 5.0 5 18
+ 1.139444 5 4 ack 40 ------- 0 5.0 0.0 5 28
- 1.139444 5 4 ack 40 ------- 0 5.0 0.0 5 28
r 1.140764 5 4 ack 40 ------- 0 5.0 0.0 5 28
h 1.140764 4 6 ack 40 ------- 0 5.0 0.0 5 28
r 1.147764 4 5 tcp 1040 ------- 0 0.0 5.0 6 19
+ 1.147764 5 4 ack 40 ------- 0 5.0 0.0 6 29
- 1.147764 5 4 ack 40 ------- 0 5.0 0.0 6 29
r 1.149084 5 4 ack 40 ------- 0 5.0 0.0 6 29
h 1.149084 4 6 ack 40 ------- 0 5.0 0.0 6 29
+ 1.200107 4 6 ack 40 ------- 0 4.0 1.0 1 24
- 1.200107 4 6 ack 40 ------- 0 4.0 1.0 1 24
+ 1.200192 4 6 ack 40 ------- 0 4.0 1.0 2 25
- 1.200192 4 6 ack 40 ------- 0 4.0 1.0 2 25
r 1.200204 6 3 tcp 1040 ------- 0 2.0 3.0 3 20
h 1.200204 3 6 ack 40 ------- 0 3.0 2.0 3 30
r 1.200289 6 3 tcp 1040 ------- 0 2.0 3.0 4 21
h 1.200289 3 6 ack 40 ------- 0 3.0 2.0 4 31
r 1.200375 6 3 tcp 1040 ------- 0 2.0 3.0 5 22
h 1.200375 3 6 ack 40 ------- 0 3.0 2.0 5 32
r 1.20046 6 3 tcp 1040 ------- 0 2.0 3.0 6 23
h 1.20046 3 6 ack 40 ------- 0 3.0 2.0 6 33
+ 1.224124 4 6 ack 40 ------- 0 5.0 0.0 3 26
- 1.224124 4 6 ack 40 ------- 0 5.0 0.0 3 26
+ 1.232444 4 6 ack 40 ------- 0 5.0 0.0 4 27
- 1.232444 4 6 ack 40 ------- 0 5.0 0.0 4 27
+ 1.240764 4 6 ack 40 ------- 0 5.0 0.0 5 28
- 1.240764 4 6 ack 40 ------- 0 5.0 0.0 5 28
+ 1.249084 4 6 ack 40 ------- 0 5.0 0.0 6 29
- 1.249084 4 6 ack 40 ------- 0 5.0 0.0 6 29
r 1.300116 6 1 ack 40 ------- 0 4.0 1.0 1 24
h 1.300116 1 6 tcp 1040 ------- 0 1.0 4.0 3 34
h 1.300116 1 6 tcp 1040 ------- 0 1.0 4.0 4 35
r 1.300201 6 1 ack 40 ------- 0 4.0 1.0 2 25
h 1.300201 1 6 tcp 1040 ------- 0 1.0 4.0 5 36
h 1.300201 1 6 tcp 1040 ------- 0 1.0 4.0 6 37
+ 1.300204 3 6 ack 40 ------- 0 3.0 2.0 3 30
- 1.300204 3 6 ack 40 ------- 0 3.0 2.0 3 30
+ 1.300289 3 6 ack 40 ------- 0 3.0 2.0 4 31
- 1.300289 3 6 ack 40 ------- 0 3.0 2.0 4 31
+ 1.300375 3 6 ack 40 ------- 0 3.0 2.0 5 32
- 1.300375 3 6 ack 40 ------- 0 3.0 2.0 5 32
+ 1.30046 3 6 ack 40 ------- 0 3.0 2.0 6 33
- 1.30046 3 6 ack 40 ------- 0 3.0 2.0 6 33
r 1.324133 6 0 ack 40 ------- 0 5.0 0.0 3 26
h 1.324133 0 6 tcp 1040 ------- 0 0.0 5.0 7 38
h 1.324133 0 6 tcp 1040 ------- 0 0.0 5.0 8 39
r 1.332453 6 0 ack 40 ------- 0 5.0 0.0 4 27
h 1.332453 0 6 tcp 1040 ------- 0 0.0 5.0 9 40
h 1.332453 0 6 tcp 1040 ------- 0 0.0 5.0 10 41
r 1.340773 6 0 ack 40 ------- 0 5.0 0.0 5 28
h 1.340773 0 6 tcp 1040 ------- 0 0.0 5.0 11 42
h 1.340773 0 6 tcp 1040 ------- 0 0.0 5.0 12 43
r 1.349093 6 0 ack 40 ------- 0 5.0 0.0 6 29
h 1.349093 0 6 tcp 1040 ------- 0 0.0 5.0 13 44
h 1.349093 0 6 tcp 1040 ------- 0 0.0 5.0 14 45
+ 1.400116 1 6 tcp 1040 ------- 0 1.0 4.0 3 34
- 1.400116 1 6 tcp 1040 ------- 0 1.0 4.0 3 34
+ 1.400116 1 6 tcp 1040 ------- 0 1.0 4.0 4 35
+ 1.400201 1 6 tcp 1040 ------- 0 1.0 4.0 5 36
+ 1.400201 1 6 tcp 1040 ------- 0 1.0 4.0 6 37
- 1.400201 1 6 tcp 1040 ------- 0 1.0 4.0 4 35
r 1.400213 6 2 ack 40 ------- 0 3.0 2.0 3 30
h 1.400213 2 6 tcp 1040 ------- 0 2.0 3.0 7 46
h 1.400213 2 6 tcp 1040 ------- 0 2.0 3.0 8 47
- 1.400286 1 6 tcp 1040 ------- 0 1.0 4.0 5 36
r 1.400298 6 2 ack 40 ------- 0 3.0 2.0 4 31
h 1.400298 2 6 tcp 1040 ------- 0 2.0 3.0 9 48
h 1.400298 2 6 tcp 1040 ------- 0 2.0 3.0 10 49
- 1.400372 1 6 tcp 1040 ------- 0 1.0 4.0 6 37
r 1.400384 6 2 ack 40 ------- 0 3.0 2.0 5 32
h 1.400384 2 6 tcp 1040 ------- 0 2.0 3.0 11 50
h 1.400384 2 6 tcp 1040 ------- 0 2.0 3.0 12 51
r 1.400469 6 2 ack 40 ------- 0 3.0 2.0 6 33
h 1.400469 2 6 tcp 1040 ------- 0 2.0 3.0 13 52
h 1.400469 2 6 tcp 1040 ------- 0 2.0 3.0 14 53
+ 1.424133 0 6 tcp 1040 ------- 0 0.0 5.0 7 38
- 1.424133 0 6 tcp 1040 ------- 0 0.0 5.0 7 38
+ 1.424133 0 6 tcp 1040 ------- 0 0.0 5.0 8 39
- 1.424218 0 6 tcp 1040 ------- 0 0.0 5.0 8 39
+ 1.432453 0 6 tcp 1040 ------- 0 0.0 5.0 9 40
- 1.432453 0 6 tcp 1040 ------- 0 0.0 5.0 9 40
+ 1.432453 0 6 tcp 1040 ------- 0 0.0 5.0 10 41
- 1.432538 0 6 tcp 1040 ------- 0 0.0 5.0 10 41
+ 1.440773 0 6 tcp 1040 ------- 0 0.0 5.0 11 42
- 1.440773 0 6 tcp 1040 ------- 0 0.0 5.0 11 42
+ 1.440773 0 6 tcp 1040 ------- 0 0.0 5.0 12 43
- 1.440858 0 6 tcp 1040 ------- 0 0.0 5.0 12 43
+ 1.449093 0 6 tcp 1040 ------- 0 0.0 5.0 13 44
- 1.449093 0 6 tcp 1040 ------- 0 0.0 5.0 13 44
+ 1.449093 0 6 tcp 1040 ------- 0 0.0 5.0 14 45
- 1.449178 0 6 tcp 1040 ------- 0 0.0 5.0 14 45
r 1.500204 6 4 tcp 1040 ------- 0 1.0 4.0 3 34
h 1.500204 4 6 ack 40 ------- 0 4.0 1.0 3 54
+ 1.500213 2 6 tcp 1040 ------- 0 2.0 3.0 7 46
- 1.500213 2 6 tcp 1040 ------- 0 2.0 3.0 7 46
+ 1.500213 2 6 tcp 1040 ------- 0 2.0 3.0 8 47
r 1.500289 6 4 tcp 1040 ------- 0 1.0 4.0 4 35
h 1.500289 4 6 ack 40 ------- 0 4.0 1.0 4 55
+ 1.500298 2 6 tcp 1040 ------- 0 2.0 3.0 9 48
+ 1.500298 2 6 tcp 1040 ------- 0 2.0 3.0 10 49
- 1.500298 2 6 tcp 1040 ------- 0 2.0 3.0 8 47
r 1.500375 6 4 tcp 1040 ------- 0 1.0 4.0 5 36
h 1.500375 4 6 ack 40 ------- 0 4.0 1.0 5 56
+ 1.500384 2 6 tcp 1040 ------- 0 2.0 3.0 11 50
+ 1.500384 2 6 tcp 1040 ------- 0 2.0 3.0 12 51
- 1.500384 2 6 tcp 1040 ------- 0 2.0 3.0 9 48
r 1.50046 6 4 tcp 1040 ------- 0 1.0 4.0 6 37
h 1.50046 4 6 ack 40 ------- 0 4.0 1.0 6 57
+ 1.500469 2 6 tcp 1040 ------- 0 2.0 3.0 13 52
+ 1.500469 2 6 tcp 1040 ------- 0 2.0 3.0 14 53
- 1.500469 2 6 tcp 1040 ------- 0 2.0 3.0 10 49
- 1.500554 2 6 tcp 1040 ------- 0 2.0 3.0 11 50
- 1.50064 2 6 tcp 1040 ------- 0 2.0 3.0 12 51
- 1.500725 2 6 tcp 1040 ------- 0 2.0 3.0 13 52
- 1.50081 2 6 tcp 1040 ------- 0 2.0 3.0 14 53
r 1.524221 6 4 tcp 1040 ------- 0 0.0 5.0 7 38
+ 1.524221 4 5 tcp 1040 ------- 0 0.0 5.0 7 38
- 1.524221 4 5 tcp 1040 ------- 0 0.0 5.0 7 38
r 1.524307 6 4 tcp 1040 ------- 0 0.0 5.0 8 39
+ 1.524307 4 5 tcp 1040 ------- 0 0.0 5.0 8 39
r 1.532541 6 4 tcp 1040 ------- 0 0.0 5.0 9 40
+ 1.532541 4 5 tcp 1040 ------- 0 0.0 5.0 9 40
- 1.532541 4 5 tcp 1040 ------- 0 0.0 5.0 8 39
r 1.532627 6 4 tcp 1040 ------- 0 0.0 5.0 10 41
+ 1.532627 4 5 tcp 1040 ------- 0 0.0 5.0 10 41
r 1.533541 4 5 tcp 1040 ------- 0 0.0 5.0 7 38
+ 1.533541 5 4 ack 40 ------- 0 5.0 0.0 7 58
- 1.533541 5 4 ack 40 ------- 0 5.0 0.0 7 58
r 1.534861 5 4 ack 40 ------- 0 5.0 0.0 7 58
h 1.534861 4 6 ack 40 ------- 0 5.0 0.0 7 58
r 1.540861 6 4 tcp 1040 ------- 0 0.0 5.0 11 42
+ 1.540861 4 5 tcp 1040 ------- 0 0.0 5.0 11 42
- 1.540861 4 5 tcp 1040 ------- 0 0.0 5.0 9 40
r 1.540947 6 4 tcp 1040 ------- 0 0.0 5.0 12 43
+ 1.540947 4 5 tcp 1040 ------- 0 0.0 5.0 12 43
r 1.541861 4 5 tcp 1040 ------- 0 0.0 5.0 8 39
+ 1.541861 5 4 ack 40 ------- 0 5.0 0.0 8 59
- 1.541861 5 4 ack 40 ------- 0 5.0 0.0 8 59
r 1.543181 5 4 ack 40 ------- 0 5.0 0.0 8 59
h 1.543181 4 6 ack 40 ------- 0 5.0 0.0 8 59
r 1.549181 6 4 tcp 1040 ------- 0 0.0 5.0 13 44
+ 1.549181 4 5 tcp 1040 ------- 0 0.0 5.0 13 44
- 1.549181 4 5 tcp 1040 ------- 0 0.0 5.0 10 41
r 1.549267 6 4 tcp 1040 ------- 0 0.0 5.0 14 45
+ 1.549267 4 5 tcp 1040 ------- 0 0.0 5.0 14 45
r 1.550181 4 5 tcp 1040 ------- 0 0.0 5.0 9 40
+ 1.550181 5 4 ack 40 ------- 0 5.0 0.0 9 60
- 1.550181 5 4 ack 40 ------- 0 5.0 0.0 9 60
r 1.551501 5 4 ack 40 ------- 0 5.0 0.0 9 60
h 1.551501 4 6 ack 40 ------- 0 5.0 0.0 9 60
- 1.557501 4 5 tcp 1040 ------- 0 0.0 5.0 11 42
r 1.558501 4 5 tcp 1040 ------- 0 0.0 5.0 10 41
+ 1.558501 5 4 ack 40 ------- 0 5.0 0.0 10 61
- 1.558501 5 4 ack 40 ------- 0 5.0 0.0 10 61
r 1.559821 5 4 ack 40 ------- 0 5.0 0.0 10 61
h 1.559821 4 6 ack 40 ------- 0 5.0 0.0 10 61
- 1.565821 4 5 tcp 1040 ------- 0 0.0 5.0 12 43
r 1.566821 4 5 tcp 1040 ------- 0 0.0 5.0 11 42
+ 1.566821 5 4 ack 40 ------- 0 5.0 0.0 11 62
- 1.566821 5 4 ack 40 ------- 0 5.0 0.0 11 62
r 1.568141 5 4 ack 40 ------- 0 5.0 0.0 11 62
h 1.568141 4 6 ack 40 ------- 0 5.0 0.0 11 62
- 1.574141 4 5 tcp 1040 ------- 0 0.0 5.0 13 44
r 1.575141 4 5 tcp 1040 ------- 0 0.0 5.0 12 43
+ 1.575141 5 4 ack 40 ------- 0 5.0 0.0 12 63
- 1.575141 5 4 ack 40 ------- 0 5.0 0.0 12 63
r 1.576461 5 4 ack 40 ------- 0 5.0 0.0 12 63
h 1.576461 4 6 ack 40 ------- 0 5.0 0.0 12 63
- 1.582461 4 5 tcp 1040 ------- 0 0.0 5.0 14 45
r 1.583461 4 5 tcp 1040 ------- 0 0.0 5.0 13 44
+ 1.583461 5 4 ack 40 ------- 0 5.0 0.0 13 64
- 1.583461 5 4 ack 40 ------- 0 5.0 0.0 13 64
r 1.584781 5 4 ack 40 ------- 0 5.0 0.0 13 64
h 1.584781 4 6 ack 40 ------- 0 5.0 0.0 13 64
r 1.591781 4 5 tcp 1040 ------- 0 0.0 5.0 14 45
+ 1.591781 5 4 ack 40 ------- 0 5.0 0.0 14 65
- 1.591781 5 4 ack 40 ------- 0 5.0 0.0 14 65
r 1.593101 5 4 ack 40 ------- 0 5.0 0.0 14 65
h 1.593101 4 6 ack 40 ------- 0 5.0 0.0 14 65
+ 1.600204 4 6 ack 40 ------- 0 4.0 1.0 3 54
- 1.600204 4 6 ack 40 ------- 0 4.0 1.0 3 54
+ 1.600289 4 6 ack 40 ------- 0 4.0 1.0 4 55
- 1.600289 4 6 ack 40 ------- 0 4.0 1.0 4 55
r 1.600301 6 3 tcp 1040 ------- 0 2.0 3.0 7 46
h 1.600301 3 6 ack 40 ------- 0 3.0 2.0 7 66
+ 1.600375 4 6 ack 40 ------- 0 4.0 1.0 5 56
- 1.600375 4 6 ack 40 ------- 0 4.0 1.0 5 56
r 1.600387 6 3 tcp 1040 ------- 0 2.0 3.0 8 47
h 1.600387 3 6 ack 40 ------- 0 3.0 2.0 8 67
+ 1.60046 4 6 ack 40 ------- 0 4.0 1.0 6 57
- 1.60046 4 6 ack 40 ------- 0 4.0 1.0 6 57
r 1.600472 6 3 tcp 1040 ------- 0 2.0 3.0 9 48
h 1.600472 3 6 ack 40 ------- 0 3.0 2.0 9 68
r 1.600557 6 3 tcp 1040 ------- 0 2.0 3.0 10 49
h 1.600557 3 6 ack 40 ------- 0 3.0 2.0 10 69
r 1.600643 6 3 tcp 1040 ------- 0 2.0 3.0 11 50
h 1.600643 3 6 ack 40 ------- 0 3.0 2.0 11 70
r 1.600728 6 3 tcp 1040 ------- 0 2.0 3.0 12 51
h 1.600728 3 6 ack 40 ------- 0 3.0 2.0 12 71
r 1.600813 6 3 tcp 1040 ------- 0 2.0 3.0 13 52
h 1.600813 3 6 ack 40 ------- 0 3.0 2.0 13 72
r 1.600898 6 3 tcp 1040 ------- 0 2.0 3.0 14 53
h 1.600898 3 6 ack 40 ------- 0 3.0 2.0 14 73
+ 1.634861 4 6 ack 40 ------- 0 5.0 0.0 7 58
- 1.634861 4 6 ack 40 ------- 0 5.0 0.0 7 58
+ 1.643181 4 6 ack 40 ------- 0 5.0 0.0 8 59
- 1.643181 4 6 ack 40 ------- 0 5.0 0.0 8 59
+ 1.651501 4 6 ack 40 ------- 0 5.0 0.0 9 60
- 1.651501 4 6 ack 40 ------- 0 5.0 0.0 9 60
+ 1.659821 4 6 ack 40 ------- 0 5.0 0.0 10 61
- 1.659821 4 6 ack 40 ------- 0 5.0 0.0 10 61
+ 1.668141 4 6 ack 40 ------- 0 5.0 0.0 11 62
- 1.668141 4 6 ack 40 ------- 0 5.0 0.0 11 62
+ 1.676461 4 6 ack 40 ------- 0 5.0 0.0 12 63
- 1.676461 4 6 ack 40 ------- 0 5.0 0.0 12 63
+ 1.684781 4 6 ack 40 ------- 0 5.0 0.0 13 64
- 1.684781 4 6 ack 40 ------- 0 5.0 0.0 13 64
+ 1.693101 4 6 ack 40 ------- 0 5.0 0.0 14 65
- 1.693101 4 6 ack 40 ------- 0 5.0 0.0 14 65
r 1.700213 6 1 ack 40 ------- 0 4.0 1.0 3 54
h 1.700213 1 6 tcp 1040 ------- 0 1.0 4.0 7 74
h 1.700213 1 6 tcp 1040 ------- 0 1.0 4.0 8 75
r 1.700298 6 1 ack 40 ------- 0 4.0 1.0 4 55
h 1.700298 1 6 tcp 1040 ------- 0 1.0 4.0 9 76
h 1.700298 1 6 tcp 1040 ------- 0 1.0 4.0 10 77
+ 1.700301 3 6 ack 40 ------- 0 3.0 2.0 7 66
- 1.700301 3 6 ack 40 ------- 0 3.0 2.0 7 66
r 1.700384 6 1 ack 40 ------- 0 4.0 1.0 5 56
h 1.700384 1 6 tcp 1040 ------- 0 1.0 4.0 11 78
h 1.700384 1 6 tcp 1040 ------- 0 1.0 4.0 12 79
+ 1.700387 3 6 ack 40 ------- 0 3.0 2.0 8 67
- 1.700387 3 6 ack 40 ------- 0 3.0 2.0 8 67
r 1.700469 6 1 ack 40 ------- 0 4.0 1.0 6 57
h 1.700469 1 6 tcp 1040 ------- 0 1.0 4.0 13 80
h 1.700469 1 6 tcp 1040 ------- 0 1.0 4.0 14 81
+ 1.700472 3 6 ack 40 ------- 0 3.0 2.0 9 68
- 1.700472 3 6 ack 40 ------- 0 3.0 2.0 9 68
+ 1.700557 3 6 ack 40 ------- 0 3.0 2.0 10 69
- 1.700557 3 6 ack 40 ------- 0 3.0 2.0 10 69
+ 1.700643 3 6 ack 40 ------- 0 3.0 2.0 11 70
- 1.700643 3 6 ack 40 ------- 0 3.0 2.0 11 70
+ 1.700728 3 6 ack 40 ------- 0 3.0 2.0 12 71
- 1.700728 3 6 ack 40 ------- 0 3.0 2.0 12 71
+ 1.700813 3 6 ack 40 ------- 0 3.0 2.0 13 72
- 1.700813 3 6 ack 40 ------- 0 3.0 2.0 13 72
+ 1.700898 3 6 ack 40 ------- 0 3.0 2.0 14 73
- 1.700898 3 6 ack 40 ------- 0 3.0 2.0 14 73
r 1.734871 6 0 ack 40 ------- 0 5.0 0.0 7 58
h 1.734871 0 6 tcp 1040 ------- 0 0.0 5.0 15 82
h 1.734871 0 6 tcp 1040 ------- 0 0.0 5.0 16 83
r 1.743191 6 0 ack 40 ------- 0 5.0 0.0 8 59
h 1.743191 0 6 tcp 1040 ------- 0 0.0 5.0 17 84
h 1.743191 0 6 tcp 1040 ------- 0 0.0 5.0 18 85
r 1.751511 6 0 ack 40 ------- 0 5.0 0.0 9 60
h 1.751511 0 6 tcp 1040 ------- 0 0.0 5.0 19 86
h 1.751511 0 6 tcp 1040 ------- 0 0.0 5.0 20 87
r 1.759831 6 0 ack 40 ------- 0 5.0 0.0 10 61
h 1.759831 0 6 tcp 1040 ------- 0 0.0 5.0 21 88
h 1.759831 0 6 tcp 1040 ------- 0 0.0 5.0 22 89
r 1.768151 6 0 ack 40 ------- 0 5.0 0.0 11 62
h 1.768151 0 6 tcp 1040 ------- 0 0.0 5.0 23 90
h 1.768151 0 6 tcp 1040 ------- 0 0.0 5.0 24 91
r 1.776471 6 0 ack 40 ------- 0 5.0 0.0 12 63
h 1.776471 0 6 tcp 1040 ------- 0 0.0 5.0 25 92
h 1.776471 0 6 tcp 1040 ------- 0 0.0 5.0 26 93
r 1.784791 6 0 ack 40 ------- 0 5.0 0.0 13 64
h 1.784791 0 6 tcp 1040 ------- 0 0.0 5.0 27 94
h 1.784791 0 6 tcp 1040 ------- 0 0.0 5.0 28 95
r 1.793111 6 0 ack 40 ------- 0 5.0 0.0 14 65
h 1.793111 0 6 tcp 1040 ------- 0 0.0 5.0 29 96
h 1.793111 0 6 tcp 1040 ------- 0 0.0 5.0 30 97
+ 1.800213 1 6 tcp 1040 ------- 0 1.0 4.0 7 74
- 1.800213 1 6 tcp 1040 ------- 0 1.0 4.0 7 74
+ 1.800213 1 6 tcp 1040 ------- 0 1.0 4.0 8 75
+ 1.800298 1 6 tcp 1040 ------- 0 1.0 4.0 9 76
+ 1.800298 1 6 tcp 1040 ------- 0 1.0 4.0 10 77
- 1.800298 1 6 tcp 1040 ------- 0 1.0 4.0 8 75
r 1.800311 6 2 ack 40 ------- 0 3.0 2.0 7 66
h 1.800311 2 6 tcp 1040 ------- 0 2.0 3.0 15 98
h 1.800311 2 6 tcp 1040 ------- 0 2.0 3.0 16 99
+ 1.800384 1 6 tcp 1040 ------- 0 1.0 4.0 11 78
+ 1.800384 1 6 tcp 1040 ------- 0 1.0 4.0 12 79
- 1.800384 1 6 tcp 1040 ------- 0 1.0 4.0 9 76
r 1.800396 6 2 ack 40 ------- 0 3.0 2.0 8 67
h 1.800396 2 6 tcp 1040 ------- 0 2.0 3.0 17 100
h 1.800396 2 6 tcp 1040 ------- 0 2.0 3.0 18 101
+ 1.800469 1 6 tcp 1040 ------- 0 1.0 4.0 13 80
+ 1.800469 1 6 tcp 1040 ------- 0 1.0 4.0 14 81
- 1.800469 1 6 tcp 1040 ------- 0 1.0 4.0 10 77
r 1.800481 6 2 ack 40 ------- 0 3.0 2.0 9 68
h 1.800481 2 6 tcp 1040 ------- 0 2.0 3.0 19 102
h 1.800481 2 6 tcp 1040 ------- 0 2.0 3.0 20 103
- 1.800554 1 6 tcp 1040 ------- 0 1.0 4.0 11 78
r 1.800566 6 2 ack 40 ------- 0 3.0 2.0 10 69
h 1.800566 2 6 tcp 1040 ------- 0 2.0 3.0 21 104
h 1.800566 2 6 tcp 1040 ------- 0 2.0 3.0 22 105
- 1.80064 1 6 tcp 1040 ------- 0 1.0 4.0 12 79
r 1.800652 6 2 ack 40 ------- 0 3.0 2.0 11 70
h 1.800652 2 6 tcp 1040 ------- 0 2.0 3.0 23 106
h 1.800652 2 6 tcp 1040 ------- 0 2.0 3.0 24 107
- 1.800725 1 6 tcp 1040 ------- 0 1.0 4.0 13 80
r 1.800737 6 2 ack 40 ------- 0 3.0 2.0 12 71
h 1.800737 2 6 tcp 1040 ------- 0 2.0 3.0 25 108
h 1.800737 2 6 tcp 1040 ------- 0 2.0 3.0 26 109
- 1.80081 1 6 tcp 1040 ------- 0 1.0 4.0 14 81
r 1.800822 6 2 ack 40 ------- 0 3.0 2.0 13 72
h 1.800822 2 6 tcp 1040 ------- 0 2.0 3.0 27 110
h 1.800822 2 6 tcp 1040 ------- 0 2.0 3.0 28 111
r 1.800908 6 2 ack 40 ------- 0 3.0 2.0 14 73
h 1.800908 2 6 tcp 1040 ------- 0 2.0 3.0 29 112
h 1.800908 2 6 tcp 1040 ------- 0 2.0 3.0 30 113
+ 1.834871 0 6 tcp 1040 ------- 0 0.0 5.0 15 82
- 1.834871 0 6 tcp 1040 ------- 0 0.0 5.0 15 82
+ 1.834871 0 6 tcp 1040 ------- 0 0.0 5.0 16 83
- 1.834956 0 6 tcp 1040 ------- 0 0.0 5.0 16 83
+ 1.843191 0 6 tcp 1040 ------- 0 0.0 5.0 17 84
- 1.843191 0 6 tcp 1040 ------- 0 0.0 5.0 17 84
+ 1.843191 0 6 tcp 1040 ------- 0 0.0 5.0 18 85
- 1.843276 0 6 tcp 1040 ------- 0 0.0 5.0 18 85
+ 1.851511 0 6 tcp 1040 ------- 0 0.0 5.0 19 86
- 1.851511 0 6 tcp 1040 ------- 0 0.0 5.0 19 86
+ 1.851511 0 6 tcp 1040 ------- 0 0.0 5.0 20 87
- 1.851596 0 6 tcp 1040 ------- 0 0.0 5.0 20 87
+ 1.859831 0 6 tcp 1040 ------- 0 0.0 5.0 21 88
- 1.859831 0 6 tcp 1040 ------- 0 0.0 5.0 21 88
+ 1.859831 0 6 tcp 1040 ------- 0 0.0 5.0 22 89
- 1.859916 0 6 tcp 1040 ------- 0 0.0 5.0 22 89
+ 1.868151 0 6 tcp 1040 ------- 0 0.0 5.0 23 90
- 1.868151 0 6 tcp 1040 ------- 0 0.0 5.0 23 90
+ 1.868151 0 6 tcp 1040 ------- 0 0.0 5.0 24 91
- 1.868236 0 6 tcp 1040 ------- 0 0.0 5.0 24 91
+ 1.876471 0 6 tcp 1040 ------- 0 0.0 5.0 25 92
- 1.876471 0 6 tcp 1040 ------- 0 0.0 5.0 25 92
+ 1.876471 0 6 tcp 1040 ------- 0 0.0 5.0 26 93
- 1.876556 0 6 tcp 1040 ------- 0 0.0 5.0 26 93
+ 1.884791 0 6 tcp 1040 ------- 0 0.0 5.0 27 94
- 1.884791 0 6 tcp 1040 ------- 0 0.0 5.0 27 94
+ 1.884791 0 6 tcp 1040 ------- 0 0.0 5.0 28 95
- 1.884876 0 6 tcp 1040 ------- 0 0.0 5.0 28 95
+ 1.893111 0 6 tcp 1040 ------- 0 0.0 5.0 29 96
- 1.893111 0 6 tcp 1040 ------- 0 0.0 5.0 29 96
+ 1.893111 0 6 tcp 1040 ------- 0 0.0 5.0 30 97
- 1.893196 0 6 tcp 1040 ------- 0 0.0 5.0 30 97
r 1.900301 6 4 tcp 1040 ------- 0 1.0 4.0 7 74
h 1.900301 4 6 ack 40 ------- 0 4.0 1.0 7 114
+ 1.900311 2 6 tcp 1040 ------- 0 2.0 3.0 15 98
- 1.900311 2 6 tcp 1040 ------- 0 2.0 3.0 15 98
+ 1.900311 2 6 tcp 1040 ------- 0 2.0 3.0 16 99
r 1.900387 6 4 tcp 1040 ------- 0 1.0 4.0 8 75
h 1.900387 4 6 ack 40 ------- 0 4.0 1.0 8 115
+ 1.900396 2 6 tcp 1040 ------- 0 2.0 3.0 17 100
+ 1.900396 2 6 tcp 1040 ------- 0 2.0 3.0 18 101
- 1.900396 2 6 tcp 1040 ------- 0 2.0 3.0 16 99
r 1.900472 6 4 tcp 1040 ------- 0 1.0 4.0 9 76
h 1.900472 4 6 ack 40 ------- 0 4.0 1.0 9 116
+ 1.900481 2 6 tcp 1040 ------- 0 2.0 3.0 19 102
+ 1.900481 2 6 tcp 1040 ------- 0 2.0 3.0 20 103
- 1.900481 2 6 tcp 1040 ------- 0 2.0 3.0 17 100
r 1.900557 6 4 tcp 1040 ------- 0 1.0 4.0 10 77
h 1.900557 4 6 ack 40 ------- 0 4.0 1.0 10 117
+ 1.900566 2 6 tcp 1040 ------- 0 2.0 3.0 21 104
+ 1.900566 2 6 tcp 1040 ------- 0 2.0 3.0 22 105
- 1.900566 2 6 tcp 1040 ------- 0 2.0 3.0 18 101
r 1.900643 6 4 tcp 1040 ------- 0 1.0 4.0 11 78
h 1.900643 4 6 ack 40 ------- 0 4.0 1.0 11 118
+ 1.900652 2 6 tcp 1040 ------- 0 2.0 3.0 23 106
+ 1.900652 2 6 tcp 1040 ------- 0 2.0 3.0 24 107
- 1.900652 2 6 tcp 1040 ------- 0 2.0 3.0 19 102
r 1.900728 6 4 tcp 1040 ------- 0 1.0 4.0 12 79
h 1.900728 4 6 ack 40 ------- 0 4.0 1.0 12 119
+ 1.900737 2 6 tcp 1040 ------- 0 2.0 3.0 25 108
+ 1.900737 2 6 tcp 1040 ------- 0 2.0 3.0 26 109
- 1.900737 2 6 tcp 1040 ------- 0 2.0 3.0 20 103
r 1.900813 6 4 tcp 1040 ------- 0 1.0 4.0 13 80
h 1.900813 4 6 ack 40 ------- 0 4.0 1.0 13 120
+ 1.900822 2 6 tcp 1040 ------- 0 2.0 3.0 27 110
+ 1.900822 2 6 tcp 1040 ------- 0 2.0 3.0 28 111
- 1.900822 2 6 tcp 1040 ------- 0 2.0 3.0 21 104
r 1.900898 6 4 tcp 1040 ------- 0 1.0 4.0 14 81
h 1.900898 4 6 ack 40 ------- 0 4.0 1.0 14 121
+ 1.900908 2 6 tcp 1040 ------- 0 2.0 3.0 29 112
+ 1.900908 2 6 tcp 1040 ------- 0 2.0 3.0 30 113
- 1.900908 2 6 tcp 1040 ------- 0 2.0 3.0 22 105
- 1.900993 2 6 tcp 1040 ------- 0 2.0 3.0 23 106
- 1.901078 2 6 tcp 1040 ------- 0 2.0 3.0 24 107
- 1.901163 2 6 tcp 1040 ------- 0 2.0 3.0 25 108
- 1.901249 2 6 tcp 1040 ------- 0 2.0 3.0 26 109
- 1.901334 2 6 tcp 1040 ------- 0 2.0 3.0 27 110
- 1.901419 2 6 tcp 1040 ------- 0 2.0 3.0 28 111
- 1.901504 2 6 tcp 1040 ------- 0 2.0 3.0 29 112
- 1.90159 2 6 tcp 1040 ------- 0 2.0 3.0 30 113
r 1.934959 6 4 tcp 1040 ------- 0 0.0 5.0 15 82
+ 1.934959 4 5 tcp 1040 ------- 0 0.0 5.0 15 82
- 1.934959 4 5 tcp 1040 ------- 0 0.0 5.0 15 82
r 1.935044 6 4 tcp 1040 ------- 0 0.0 5.0 16 83
+ 1.935044 4 5 tcp 1040 ------- 0 0.0 5.0 16 83
r 1.943279 6 4 tcp 1040 ------- 0 0.0 5.0 17 84
+ 1.943279 4 5 tcp 1040 ------- 0 0.0 5.0 17 84
- 1.943279 4 5 tcp 1040 ------- 0 0.0 5.0 16 83
r 1.943364 6 4 tcp 1040 ------- 0 0.0 5.0 18 85
+ 1.943364 4 5 tcp 1040 ------- 0 0.0 5.0 18 85
r 1.944279 4 5 tcp 1040 ------- 0 0.0 5.0 15 82
+ 1.944279 5 4 ack 40 ------- 0 5.0 0.0 15 122
- 1.944279 5 4 ack 40 ------- 0 5.0 0.0 15 122
r 1.945599 5 4 ack 40 ------- 0 5.0 0.0 15 122
h 1.945599 4 6 ack 40 ------- 0 5.0 0.0 15 122
r 1.951599 6 4 tcp 1040 ------- 0 0.0 5.0 19 86
+ 1.951599 4 5 tcp 1040 ------- 0 0.0 5.0 19 86
- 1.951599 4 5 tcp 1040 ------- 0 0.0 5.0 17 84
r 1.951684 6 4 tcp 1040 ------- 0 0.0 5.0 20 87
+ 1.951684 4 5 tcp 1040 ------- 0 0.0 5.0 20 87
r 1.952599 4 5 tcp 1040 ------- 0 0.0 5.0 16 83
+ 1.952599 5 4 ack 40 ------- 0 5.0 0.0 16 123
- 1.952599 5 4 ack 40 ------- 0 5.0 0.0 16 123
r 1.953919 5 4 ack 40 ------- 0 5.0 0.0 16 123
h 1.953919 4 6 ack 40 ------- 0 5.0 0.0 16 123
r 1.959919 6 4 tcp 1040 ------- 0 0.0 5.0 21 88
+ 1.959919 4 5 tcp 1040 ------- 0 0.0 5.0 21 88
- 1.959919 4 5 tcp 1040 ------- 0 0.0 5.0 18 85
r 1.960004 6 4 tcp 1040 ------- 0 0.0 5.0 22 89
+ 1.960004 4 5 tcp 1040 ------- 0 0.0 5.0 22 89
r 1.960919 4 5 tcp 1040 ------- 0 0.0 5.0 17 84
+ 1.960919 5 4 ack 40 ------- 0 5.0 0.0 17 124
- 1.960919 5 4 ack 40 ------- 0 5.0 0.0 17 124
r 1.962239 5 4 ack 40 ------- 0 5.0 0.0 17 124
h 1.962239 4 6 ack 40 ------- 0 5.0 0.0 17 124
r 1.968239 6 4 tcp 1040 ------- 0 0.0 5.0 23 90
+ 1.968239 4 5 tcp 1040 ------- 0 0.0 5.0 23 90
- 1.968239 4 5 tcp 1040 ------- 0 0.0 5.0 19 86
r 1.968324 6 4 tcp 1040 ------- 0 0.0 5.0 24 91
+ 1.968324 4 5 tcp 1040 ------- 0 0.0 5.0 24 91
r 1.969239 4 5 tcp 1040 ------- 0 0.0 5.0 18 85
+ 1.969239 5 4 ack 40 ------- 0 5.0 0.0 18 125
- 1.969239 5 4 ack 40 ------- 0 5.0 0.0 18 125
r 1.970559 5 4 ack 40 ------- 0 5.0 0.0 18 125
h 1.970559 4 6 ack 40 ------- 0 5.0 0.0 18 125
r 1.976559 6 4 tcp 1040 ------- 0 0.0 5.0 25 92
+ 1.976559 4 5 tcp 1040 ------- 0 0.0 5.0 25 92
- 1.976559 4 5 tcp 1040 ------- 0 0.0 5.0 20 87
r 1.976644 6 4 tcp 1040 ------- 0 0.0 5.0 26 93
+ 1.976644 4 5 tcp 1040 ------- 0 0.0 5.0 26 93
r 1.977559 4 5 tcp 1040 ------- 0 0.0 5.0 19 86
+ 1.977559 5 4 ack 40 ------- 0 5.0 0.0 19 126
- 1.977559 5 4 ack 40 ------- 0 5.0 0.0 19 126
r 1.978879 5 4 ack 40 ------- 0 5.0 0.0 19 126
h 1.978879 4 6 ack 40 ------- 0 5.0 0.0 19 126
r 1.984879 6 4 tcp 1040 ------- 0 0.0 5.0 27 94
+ 1.984879 4 5 tcp 1040 ------- 0 0.0 5.0 27 94
- 1.984879 4 5 tcp 1040 ------- 0 0.0 5.0 21 88
r 1.984964 6 4 tcp 1040 ------- 0 0.0 5.0 28 95
+ 1.984964 4 5 tcp 1040 ------- 0 0.0 5.0 28 95
r 1.985879 4 5 tcp 1040 ------- 0 0.0 5.0 20 87
+ 1.985879 5 4 ack 40 ------- 0 5.0 0.0 20 127
- 1.985879 5 4 ack 40 ------- 0 5.0 0.0 20 127
r 1.987199 5 4 ack 40 ------- 0 5.0 0.0 20 127
h 1.987199 4 6 ack 40 ------- 0 5.0 0.0 20 127
r 1.993199 6 4 tcp 1040 ------- 0 0.0 5.0 29 96
+ 1.993199 4 5 tcp 1040 ------- 0 0.0 5.0 29 96
- 1.993199 4 5 tcp 1040 ------- 0 0.0 5.0 22 89
r 1.993284 6 4 tcp 1040 ------- 0 0.0 5.0 30 97
+ 1.993284 4 5 tcp 1040 ------- 0 0.0 5.0 30 97
r 1.994199 4 5 tcp 1040 ------- 0 0.0 5.0 21 88
+ 1.994199 5 4 ack 40 ------- 0 5.0 0.0 21 128
- 1.994199 5 4 ack 40 ------- 0 5.0 0.0 21 128
r 1.995519 5 4 ack 40 ------- 0 5.0 0.0 21 128
h 1.995519 4 6 ack 40 ------- 0 5.0 0.0 21 128
+ 2.000301 4 6 ack 40 ------- 0 4.0 1.0 7 114
- 2.000301 4 6 ack 40 ------- 0 4.0 1.0 7 114
+ 2.000387 4 6 ack 40 ------- 0 4.0 1.0 8 115
- 2.000387 4 6 ack 40 ------- 0 4.0 1.0 8 115
r 2.000399 6 3 tcp 1040 ------- 0 2.0 3.0 15 98
h 2.000399 3 6 ack 40 ------- 0 3.0 2.0 15 129
+ 2.000472 4 6 ack 40 ------- 0 4.0 1.0 9 116
- 2.000472 4 6 ack 40 ------- 0 4.0 1.0 9 116
r 2.000484 6 3 tcp 1040 ------- 0 2.0 3.0 16 99
h 2.000484 3 6 ack 40 ------- 0 3.0 2.0 16 130
+ 2.000557 4 6 ack 40 ------- 0 4.0 1.0 10 117
- 2.000557 4 6 ack 40 ------- 0 4.0 1.0 10 117
r 2.000569 6 3 tcp 1040 ------- 0 2.0 3.0 17 100
h 2.000569 3 6 ack 40 ------- 0 3.0 2.0 17 131
+ 2.000643 4 6 ack 40 ------- 0 4.0 1.0 11 118
- 2.000643 4 6 ack 40 ------- 0 4.0 1.0 11 118
r 2.000655 6 3 tcp 1040 ------- 0 2.0 3.0 18 101
h 2.000655 3 6 ack 40 ------- 0 3.0 2.0 18 132
+ 2.000728 4 6 ack 40 ------- 0 4.0 1.0 12 119
- 2.000728 4 6 ack 40 ------- 0 4.0 1.0 12 119
r 2.00074 6 3 tcp 1040 ------- 0 2.0 3.0 19 102
h 2.00074 3 6 ack 40 ------- 0 3.0 2.0 19 133
+ 2.000813 4 6 ack 40 ------- 0 4.0 1.0 13 120
- 2.000813 4 6 ack 40 ------- 0 4.0 1.0 13 120
r 2.000825 6 3 tcp 1040 ------- 0 2.0 3.0 20 103
h 2.000825 3 6 ack 40 ------- 0 3.0 2.0 20 134
+ 2.000898 4 6 ack 40 ------- 0 4.0 1.0 14 121
- 2.000898 4 6 ack 40 ------- 0 4.0 1.0 14 121
r 2.000911 6 3 tcp 1040 ------- 0 2.0 3.0 21 104
h 2.000911 3 6 ack 40 ------- 0 3.0 2.0 21 135
r 2.000996 6 3 tcp 1040 ------- 0 2.0 3.0 22 105
h 2.000996 3 6 ack 40 ------- 0 3.0 2.0 22 136
r 2.001081 6 3 tcp 1040 ------- 0 2.0 3.0 23 106
h 2.001081 3 6 ack 40 ------- 0 3.0 2.0 23 137
r 2.001166 6 3 tcp 1040 ------- 0 2.0 3.0 24 107
h 2.001166 3 6 ack 40 ------- 0 3.0 2.0 24 138
r 2.001252 6 3 tcp 1040 ------- 0 2.0 3.0 25 108
h 2.001252 3 6 ack 40 ------- 0 3.0 2.0 25 139
r 2.001337 6 3 tcp 1040 ------- 0 2.0 3.0 26 109
h 2.001337 3 6 ack 40 ------- 0 3.0 2.0 26 140
r 2.001422 6 3 tcp 1040 ------- 0 2.0 3.0 27 110
h 2.001422 3 6 ack 40 ------- 0 3.0 2.0 27 141
r 2.001508 6 3 tcp 1040 ------- 0 2.0 3.0 28 111
h 2.001508 3 6 ack 40 ------- 0 3.0 2.0 28 142
- 2.001519 4 5 tcp 1040 ------- 0 0.0 5.0 23 90