n -t 0 -s 0 -S DLABEL -l "TCP Source" -L ""
n -t 0 -s 1 -S DLABEL -l "Sink" -L ""
n -t 0 -s 2 -S DLABEL -l "UDP Source" -L ""
V -t * -v 1.0a5 -a 0
A -t * -n 1 -p 0 -o 0x7fffffff -c 30 -a 1
A -t * -h 1 -m 1073741823 -s 0
c -t * -i 1 -n red
c -t * -i 2 -n yellow
n -t * -a 0 -s 0 -S UP -v circle -c black -i black
n -t * -a 1 -s 1 -S UP -v circle -c black -i black
n -t * -a 2 -s 2 -S UP -v circle -c black -i black
l -t * -s 0 -d 1 -S UP -r 2000000 -D 0.01 -c black -o right
l -t * -s 1 -d 2 -S UP -r 700000 -D 0.02 -c black -o right
+ -t 0.5 -s 2 -d 1 -p cbr -e 500 -c 0 -i 0 -a 0 -x {2.0 1.0 0 ------- null}
- -t 0.5 -s 2 -d 1 -p cbr -e 500 -c 0 -i 0 -a 0 -x {2.0 1.0 0 ------- null}
h -t 0.5 -s 2 -d 1 -p cbr -e 500 -c 0 -i 0 -a 0 -x {2.0 1.0 -1 ------- null}
+ -t 0.5 -s 0 -d 1 -p tcp -e 40 -c 0 -i 1 -a 0 -x {0.0 1.1 0 ------- null}
- -t 0.5 -s 0 -d 1 -p tcp -e 40 -c 0 -i 1 -a 0 -x {0.0 1.1 0 ------- null}
h -t 0.5 -s 0 -d 1 -p tcp -e 40 -c 0 -i 1 -a 0 -x {0.0 1.1 -1 ------- null}
+ -t 0.505 -s 2 -d 1 -p cbr -e 500 -c 0 -i 2 -a 0 -x {2.0 1.0 1 ------- null}
- -t 0.505714285714286 -s 2 -d 1 -p cbr -e 500 -c 0 -i 2 -a 0 -x {2.0 1.0 1 ------- null}
h -t 0.505714285714286 -s 2 -d 1 -p cbr -e 500 -c 0 -i 2 -a 0 -x {2.0 1.0 -1 ------- null}
+ -t 0.51 -s 2 -d 1 -p cbr -e 500 -c 0 -i 3 -a 0 -x {2.0 1.0 2 ------- null}
r -t 0.51016 -s 0 -d 1 -p tcp -e 40 -c 0 -i 1 -a 0 -x {0.0 1.1 0 ------- null}
+ -t 0.51016 -s 1 -d 0 -p ack -e 40 -c 0 -i 4 -a 0 -x {1.1 0.0 0 ------- null}
- -t 0.51016 -s 1 -d 0 -p ack -e 40 -c 0 -i 4 -a 0 -x {1.1 0.0 0 ------- null}
h -t 0.51016 -s 1 -d 0 -p ack -e 40 -c 0 -i 4 -a 0 -x {1.1 0.0 -1 ------- null}
- -t 0.511428571428571 -s 2 -d 1 -p cbr -e 500 -c 0 -i 3 -a 0 -x {2.0 1.0 2 ------- null}
h -t 0.511428571428571 -s 2 -d 1 -p cbr -e 500 -c 0 -i 3 -a 0 -x {2.0 1.0 -1 ------- null}
+ -t 0.515 -s 2 -d 1 -p cbr -e 500 -c 0 -i 5 -a 0 -x {2.0 1.0 3 ------- null}
- -t 0.517142857142857 -s 2 -d 1 -p cbr -e 500 -c 0 -i 5 -a 0 -x {2.0 1.0 3 ------- null}
h -t 0.517142857142857 -s 2 -d 1 -p cbr -e 500 -c 0 -i 5 -a 0 -x {2.0 1.0 -1 ------- null}
+ -t 0.52 -s 2 -d 1 -p cbr -e 500 -c 0 -i 6 -a 0 -x {2.0 1.0 4 ------- null}
r -t 0.52032 -s 1 -d 0 -p ack -e 40 -c 0 -i 4 -a 0 -x {1.1 0.0 0 ------- null}
+ -t 0.52032 -s 0 -d 1 -p tcp -e 1040 -c 0 -i 7 -a 0 -x {0.0 1.1 1 ------- null}
- -t 0.52032 -s 0 -d 1 -p tcp -e 1040 -c 0 -i 7 -a 0 -x {0.0 1.1 1 ------- null}
h -t 0.52032 -s 0 -d 1 -p tcp -e 1040 -c 0 -i 7 -a 0 -x {0.0 1.1 -1 ------- null}
+ -t 0.52032 -s 0 -d 1 -p tcp -e 1040 -c 0 -i 8 -a 0 -x {0.0 1.1 2 ------- null}
- -t 0.522857142857143 -s 2 -d 1 -p cbr -e 500 -c 0 -i 6 -a 0 -x {2.0 1.0 4 ------- null}
h -t 0.522857142857143 -s 2 -d 1 -p cbr -e 500 -c 0 -i 6 -a 0 -x {2.0 1.0 -1 ------- null}
- -t 0.52448 -s 0 -d 1 -p tcp -e 1040 -c 0 -i 8 -a 0 -x {0.0 1.1 2 ------- null}
h -t 0.52448 -s 0 -d 1 -p tcp -e 1040 -c 0 -i 8 -a 0 -x {0.0 1.1 -1 ------- null}
+ -t 0.525 -s 2 -d 1 -p cbr -e 500 -c 0 -i 9 -a 0 -x {2.0 1.0 5 ------- null}
r -t 0.525714285714286 -s 2 -d 1 -p cbr -e 500 -c 0 -i 0 -a 0 -x {2.0 1.0 0 ------- null}
- -t 0.528571428571428 -s 2 -d 1 -p cbr -e 500 -c 0 -i 9 -a 0 -x {2.0 1.0 5 ------- null}
h -t 0.528571428571428 -s 2 -d 1 -p cbr -e 500 -c 0 -i 9 -a 0 -x {2.0 1.0 -1 ------- null}
+ -t 0.53 -s 2 -d 1 -p cbr -e 500 -c 0 -i 10 -a 0 -x {2.0 1.0 6 ------- null}
r -t 0.531428571428571 -s 2 -d 1 -p cbr -e 500 -c 0 -i 2 -a 0 -x {2.0 1.0 1 ------- null}
- -t 0.534285714285714 -s 2 -d 1 -p cbr -e 500 -c 0 -i 10 -a 0 -x {2.0 1.0 6 ------- null}
h -t 0.534285714285714 -s 2 -d 1 -p cbr -e 500 -c 0 -i 10 -a 0 -x {2.0 1.0 -1 ------- null}
r -t 0.53448 -s 0 -d 1 -p tcp -e 1040 -c 0 -i 7 -a 0 -x {0.0 1.1 1 ------- null}
+ -t 0.53448 -s 1 -d 0 -p ack -e 40 -c 0 -i 11 -a 0 -x {1.1 0.0 1 ------- null}
- -t 0.53448 -s 1 -d 0 -p ack -e 40 -c 0 -i 11 -a 0 -x {1.1 0.0 1 ------- null}
h -t 0.53448 -s 1 -d 0 -p ack -e 40 -c 0 -i 11 -a 0 -x {1.1 0.0 -1 ------- null}
+ -t 0.535 -s 2 -d 1 -p cbr -e 500 -c 0 -i 12 -a 0 -x {2.0 1.0 7 ------- null}
r -t 0.537142857142857 -s 2 -d 1 -p cbr -e 500 -c 0 -i 3 -a 0 -x {2.0 1.0 2 ------- null}
r -t 0.53864 -s 0 -d 1 -p tcp -e 1040 -c 0 -i 8 -a 0 -x {0.0 1.1 2 ------- null}
+ -t 0.53864 -s 1 -d 0 -p ack -e 40 -c 0 -i 13 -a 0 -x {1.1 0.0 2 ------- null}
- -t 0.53864 -s 1 -d 0 -p ack -e 40 -c 0 -i 13 -a 0 -x {1.1 0.0 2 ------- null}
h -t 0.53864 -s 1 -d 0 -p ack -e 40 -c 0 -i 13 -a 0 -x {1.1 0.0 -1 ------- null}
- -t 0.54 -s 2 -d 1 -p cbr -e 500 -c 0 -i 12 -a 0 -x {2.0 1.0 7 ------- null}
h -t 0.54 -s 2 -d 1 -p cbr -e 500 -c 0 -i 12 -a 0 -x {2.0 1.0 -1 ------- null}
+ -t 0.54 -s 2 -d 1 -p cbr -e 500 -c 0 -i 14 -a 0 -x {2.0 1.0 8 ------- null}
r -t 0.542857142857143 -s 2 -d 1 -p cbr -e 500 -c 0 -i 5 -a 0 -x {2.0 1.0 3 ------- null}
r -t 0.54464 -s 1 -d 0 -p ack -e 40 -c 0 -i 11 -a 0 -x {1.1 0.0 1 ------- null}
+ -t 0.54464 -s 0 -d 1 -p tcp -e 1040 -c 0 -i 15 -a 0 -x {0.0 1.1 3 ------- null}
- -t 0.54464 -s 0 -d 1 -p tcp -e 1040 -c 0 -i 15 -a 0 -x {0.0 1.1 3 ------- null}
h -t 0.54464 -s 0 -d 1 -p tcp -e 1040 -c 0 -i 15 -a 0 -x {0.0 1.1 -1 ------- null}
+ -t 0.54464 -s 0 -d 1 -p tcp -e 1040 -c 0 -i 16 -a 0 -x {0.0 1.1 4 ------- null}
+ -t 0.545 -s 2 -d 1 -p cbr -e 500 -c 0 -i 17 -a 0 -x {2.0 1.0 9 ------- null}
- -t 0.545714285714285 -s 2 -d 1 -p cbr -e 500 -c 0 -i 14 -a 0 -x {2.0 1.0 8 ------- null}
h -t 0.545714285714285 -s 2 -d 1 -p cbr -e 500 -c 0 -i 14 -a 0 -x {2.0 1.0 -1 ------- null}
r -t 0.548571428571428 -s 2 -d 1 -p cbr -e 500 -c 0 -i 6 -a 0 -x {2.0 1.0 4 ------- null}
r -t 0.5488 -s 1 -d 0 -p ack -e 40 -c 0 -i 13 -a 0 -x {1.1 0.0 2 ------- null}
+ -t 0.5488 -s 0 -d 1 -p tcp -e 1040 -c 0 -i 18 -a 0 -x {0.0 1.1 5 ------- null}
+ -t 0.5488 -s 0 -d 1 -p tcp -e 1040 -c 0 -i 19 -a 0 -x {0.0 1.1 6 ------- null}
- -t 0.5488 -s 0 -d 1 -p tcp -e 1040 -c 0 -i 16 -a 0 -x {0.0 1.1 4 ------- null}
h -t 0.5488 -s 0 -d 1 -p tcp -e 1040 -c 0 -i 16 -a 0 -x {0.0 1.1 -1 ------- null}
+ -t 0.55 -s 2 -d 1 -p cbr -e 500 -c 0 -i 20 -a 0 -x {2.0 1.0 10 ------- null}
- -t 0.551428571428571 -s 2 -d 1 -p cbr -e 500 -c 0 -i 17 -a 0 -x {2.0 1.0 9 ------- null}
h -t 0.551428571428571 -s 2 -d 1 -p cbr -e 500 -c 0 -i 17 -a 0 -x {2.0 1.0 -1 ------- null}
- -t 0.55296 -s 0 -d 1 -p tcp -e 1040 -c 0 -i 18 -a 0 -x {0.0 1.1 5 ------- null}
h -t 0.55296 -s 0 -d 1 -p tcp -e 1040 -c 0 -i 18 -a 0 -x {0.0 1.1 -1 ------- null}
r -t 0.554285714285714 -s 2 -d 1 -p cbr -e 500 -c 0 -i 9 -a 0 -x {2.0 1.0 5 ------- null}
+ -t 0.555 -s 2 -d 1 -p cbr -e 500 -c 0 -i 21 -a 0 -x {2.0 1.0 11 ------- null}
- -t 0.55712 -s 0 -d 1 -p tcp -e 1040 -c 0 -i 19 -a 0 -x {0.0 1.1 6 ------- null}
h -t 0.55712 -s 0 -d 1 -p tcp -e 1040 -c 0 -i 19 -a 0 -x {0.0 1.1 -1 ------- null}
- -t 0.557142857142857 -s 2 -d 1 -p cbr -e 500 -c 0 -i 20 -a 0 -x {2.0 1.0 10 ------- null}
h -t 0.557142857142857 -s 2 -d 1 -p cbr -e 500 -c 0 -i 20 -a 0 -x {2.0 1.0 -1 ------- null}
r -t 0.5588 -s 0 -d 1 -p tcp -e 1040 -c 0 -i 15 -a 0 -x {0.0 1.1 3 ------- null}
+ -t 0.5588 -s 1 -d 0 -p ack -e 40 -c 0 -i 22 -a 0 -x {1.1 0.0 3 ------- null}
- -t 0.5588 -s 1 -d 0 -p ack -e 40 -c 0 -i 22 -a 0 -x {1.1 0.0 3 ------- null}
h -t 0.5588 -s 1 -d 0 -p ack -e 40 -c 0 -i 22 -a 0 -x {1.1 0.0 -1 ------- null}
r -t 0.56 -s 2 -d 1 -p cbr -e 500 -c 0 -i 10 -a 0 -x {2.0 1.0 6 ------- null}
+ -t 0.56 -s 2 -d 1 -p cbr -e 500 -c 0 -i 23 -a 0 -x {2.0 1.0 12 ------- null}
- -t 0.562857142857142 -s 2 -d 1 -p cbr -e 500 -c 0 -i 21 -a 0 -x {2.0 1.0 11 ------- null}
h -t 0.562857142857142 -s 2 -d 1 -p cbr -e 500 -c 0 -i 21 -a 0 -x {2.0 1.0 -1 ------- null}
r -t 0.56296 -s 0 -d 1 -p tcp -e 1040 -c 0 -i 16 -a 0 -x {0.0 1.1 4 ------- null}
+ -t 0.56296 -s 1 -d 0 -p ack -e 40 -c 0 -i 24 -a 0 -x {1.1 0.0 4 ------- null}
- -t 0.56296 -s 1 -d 0 -p ack -e 40 -c 0 -i 24 -a 0 -x {1.1 0.0 4 ------- null}
h -t 0.56296 -s 1 -d 0 -p ack -e 40 -c 0 -i 24 -a 0 -x {1.1 0.0 -1 ------- null}
+ -t 0.565 -s 2 -d 1 -p cbr -e 500 -c 0 -i 25 -a 0 -x {2.0 1.0 13 ------- null}
r -t 0.565714285714285 -s 2 -d 1 -p cbr -e 500 -c 0 -i 12 -a 0 -x {2.0 1.0 7 ------- null}
r -t 0.56712 -s 0 -d 1 -p tcp -e 1040 -c 0 -i 18 -a 0 -x {0.0 1.1 5 ------- null}
+ -t 0.56712 -s 1 -d 0 -p ack -e 40 -c 0 -i 26 -a 0 -x {1.1 0.0 5 ------- null}
- -t 0.56712 -s 1 -d 0 -p ack -e 40 -c 0 -i 26 -a 0 -x {1.1 0.0 5 ------- null}
h -t 0.56712 -s 1 -d 0 -p ack -e 40 -c 0 -i 26 -a 0 -x {1.1 0.0 -1 ------- null}
- -t 0.568571428571428 -s 2 -d 1 -p cbr -e 500 -c 0 -i 23 -a 0 -x {2.0 1.0 12 ------- null}
h -t 0.568571428571428 -s 2 -d 1 -p cbr -e 500 -c 0 -i 23 -a 0 -x {2.0 1.0 -1 ------- null}
r -t 0.56896 -s 1 -d 0 -p ack -e 40 -c 0 -i 22 -a 0 -x {1.1 0.0 3 ------- null}
+ -t 0.56896 -s 0 -d 1 -p tcp -e 1040 -c 0 -i 27 -a 0 -x {0.0 1.1 7 ------- null}
- -t 0.56896 -s 0 -d 1 -p tcp -e 1040 -c 0 -i 27 -a 0 -x {0.0 1.1 7 ------- null}
h -t 0.56896 -s 0 -d 1 -p tcp -e 1040 -c 0 -i 27 -a 0 -x {0.0 1.1 -1 ------- null}
+ -t 0.56896 -s 0 -d 1 -p tcp -e 1040 -c 0 -i 28 -a 0 -x {0.0 1.1 8 ------- null}
+ -t 0.57 -s 2 -d 1 -p cbr -e 500 -c 0 -i 29 -a 0 -x {2.0 1.0 14 ------- null}
r -t 0.57128 -s 0 -d 1 -p tcp -e 1040 -c 0 -i 19 -a 0 -x {0.0 1.1 6 ------- null}
+ -t 0.57128 -s 1 -d 0 -p ack -e 40 -c 0 -i 30 -a 0 -x {1.1 0.0 6 ------- null}
- -t 0.57128 -s 1 -d 0 -p ack -e 40 -c 0 -i 30 -a 0 -x {1.1 0.0 6 ------- null}
h -t 0.57128 -s 1 -d 0 -p ack -e 40 -c 0 -i 30 -a 0 -x {1.1 0.0 -1 ------- null}
r -t 0.571428571428571 -s 2 -d 1 -p cbr -e 500 -c 0 -i 14 -a 0 -x {2.0 1.0 8 ------- null}
r -t 0.57312 -s 1 -d 0 -p ack -e 40 -c 0 -i 24 -a 0 -x {1.1 0.0 4 ------- null}
+ -t 0.57312 -s 0 -d 1 -p tcp -e 1040 -c 0 -i 31 -a 0 -x {0.0 1.1 9 ------- null}
+ -t 0.57312 -s 0 -d 1 -p tcp -e 1040 -c 0 -i 32 -a 0 -x {0.0 1.1 10 ------- null}
- -t 0.57312 -s 0 -d 1 -p tcp -e 1040 -c 0 -i 28 -a 0 -x {0.0 1.1 8 ------- null}
h -t 0.57312 -s 0 -d 1 -p tcp -e 1040 -c 0 -i 28 -a 0 -x {0.0 1.1 -1 ------- null}
- -t 0.574285714285714 -s 2 -d 1 -p cbr -e 500 -c 0 -i 25 -a 0 -x {2.0 1.0 13 ------- null}
h -t 0.574285714285714 -s 2 -d 1 -p cbr -e 500 -c 0 -i 25 -a 0 -x {2.0 1.0 -1 ------- null}
+ -t 0.575 -s 2 -d 1 -p cbr -e 500 -c 0 -i 33 -a 0 -x {2.0 1.0 15 ------- null}
r -t 0.577142857142857 -s 2 -d 1 -p cbr -e 500 -c 0 -i 17 -a 0 -x {2.0 1.0 9 ------- null}
r -t 0.57728 -s 1 -d 0 -p ack -e 40 -c 0 -i 26 -a 0 -x {1.1 0.0 5 ------- null}
+ -t 0.57728 -s 0 -d 1 -p tcp -e 1040 -c 0 -i 34 -a 0 -x {0.0 1.1 11 ------- null}
+ -t 0.57728 -s 0 -d 1 -p tcp -e 1040 -c 0 -i 35 -a 0 -x {0.0 1.1 12 ------- null}
- -t 0.57728 -s 0 -d 1 -p tcp -e 1040 -c 0 -i 31 -a 0 -x {0.0 1.1 9 ------- null}
h -t 0.57728 -s 0 -d 1 -p tcp -e 1040 -c 0 -i 31 -a 0 -x {0.0 1.1 -1 ------- null}
- -t 0.579999999999999 -s 2 -d 1 -p cbr -e 500 -c 0 -i 29 -a 0 -x {2.0 1.0 14 ------- null}
h -t 0.579999999999999 -s 2 -d 1 -p cbr -e 500 -c 0 -i 29 -a 0 -x {2.0 1.0 -1 ------- null}
+ -t 0.58 -s 2 -d 1 -p cbr -e 500 -c 0 -i 36 -a 0 -x {2.0 1.0 16 ------- null}
r -t 0.58144 -s 1 -d 0 -p ack -e 40 -c 0 -i 30 -a 0 -x {1.1 0.0 6 ------- null}
+ -t 0.58144 -s 0 -d 1 -p tcp -e 1040 -c 0 -i 37 -a 0 -x {0.0 1.1 13 ------- null}
+ -t 0.58144 -s 0 -d 1 -p tcp -e 1040 -c 0 -i 38 -a 0 -x {0.0 1.1 14 ------- null}
- -t 0.58144 -s 0 -d 1 -p tcp -e 1040 -c 0 -i 32 -a 0 -x {0.0 1.1 10 ------- null}
h -t 0.58144 -s 0 -d 1 -p tcp -e 1040 -c 0 -i 32 -a 0 -x {0.0 1.1 -1 ------- null}
r -t 0.582857142857142 -s 2 -d 1 -p cbr -e 500 -c 0 -i 20 -a 0 -x {2.0 1.0 10 ------- null}
r -t 0.58312 -s 0 -d 1 -p tcp -e 1040 -c 0 -i 27 -a 0 -x {0.0 1.1 7 ------- null}
+ -t 0.58312 -s 1 -d 0 -p ack -e 40 -c 0 -i 39 -a 0 -x {1.1 0.0 7 ------- null}
- -t 0.58312 -s 1 -d 0 -p ack -e 40 -c 0 -i 39 -a 0 -x {1.1 0.0 7 ------- null}
h -t 0.58312 -s 1 -d 0 -p ack -e 40 -c 0 -i 39 -a 0 -x {1.1 0.0 -1 ------- null}
+ -t 0.585 -s 2 -d 1 -p cbr -e 500 -c 0 -i 40 -a 0 -x {2.0 1.0 17 ------- null}
- -t 0.5856 -s 0 -d 1 -p tcp -e 1040 -c 0 -i 34 -a 0 -x {0.0 1.1 11 ------- null}
h -t 0.5856 -s 0 -d 1 -p tcp -e 1040 -c 0 -i 34 -a 0 -x {0.0 1.1 -1 ------- null}
- -t 0.585714285714285 -s 2 -d 1 -p cbr -e 500 -c 0 -i 33 -a 0 -x {2.0 1.0 15 ------- null}
h -t 0.585714285714285 -s 2 -d 1 -p cbr -e 500 -c 0 -i 33 -a 0 -x {2.0 1.0 -1 ------- null}
r -t 0.58728 -s 0 -d 1 -p tcp -e 1040 -c 0 -i 28 -a 0 -x {0.0 1.1 8 ------- null}
+ -t 0.58728 -s 1 -d 0 -p ack -e 40 -c 0 -i 41 -a 0 -x {1.1 0.0 8 ------- null}
- -t 0.58728 -s 1 -d 0 -p ack -e 40 -c 0 -i 41 -a 0 -x {1.1 0.0 8 ------- null}
h -t 0.58728 -s 1 -d 0 -p ack -e 40 -c 0 -i 41 -a 0 -x {1.1 0.0 -1 ------- null}
r -t 0.588571428571428 -s 2 -d 1 -p cbr -e 500 -c 0 -i 21 -a 0 -x {2.0 1.0 11 ------- null}
- -t 0.58976 -s 0 -d 1 -p tcp -e 1040 -c 0 -i 35 -a 0 -x {0.0 1.1 12 ------- null}
h -t 0.58976 -s 0 -d 1 -p tcp -e 1040 -c 0 -i 35 -a 0 -x {0.0 1.1 -1 ------- null}
+ -t 0.59 -s 2 -d 1 -p cbr -e 500 -c 0 -i 42 -a 0 -x {2.0 1.0 18 ------- null}
- -t 0.591428571428571 -s 2 -d 1 -p cbr -e 500 -c 0 -i 36 -a 0 -x {2.0 1.0 16 ------- null}
h -t 0.591428571428571 -s 2 -d 1 -p cbr -e 500 -c 0 -i 36 -a 0 -x {2.0 1.0 -1 ------- null}
r -t 0.59144 -s 0 -d 1 -p tcp -e 1040 -c 0 -i 31 -a 0 -x {0.0 1.1 9 ------- null}
+ -t 0.59144 -s 1 -d 0 -p ack -e 40 -c 0 -i 43 -a 0 -x {1.1 0.0 9 ------- null}
- -t 0.59144 -s 1 -d 0 -p ack -e 40 -c 0 -i 43 -a 0 -x {1.1 0.0 9 ------- null}
h -t 0.59144 -s 1 -d 0 -p ack -e 40 -c 0 -i 43 -a 0 -x {1.1 0.0 -1 ------- null}
r -t 0.59328 -s 1 -d 0 -p ack -e 40 -c 0 -i 39 -a 0 -x {1.1 0.0 7 ------- null}
+ -t 0.59328 -s 0 -d 1 -p tcp -e 1040 -c 0 -i 44 -a 0 -x {0.0 1.1 15 ------- null}
+ -t 0.59328 -s 0 -d 1 -p tcp -e 1040 -c 0 -i 45 -a 0 -x {0.0 1.1 16 ------- null}
- -t 0.59392 -s 0 -d 1 -p tcp -e 1040 -c 0 -i 37 -a 0 -x {0.0 1.1 13 ------- null}
h -t 0.59392 -s 0 -d 1 -p tcp -e 1040 -c 0 -i 37 -a 0 -x {0.0 1.1 -1 ------- null}
r -t 0.594285714285714 -s 2 -d 1 -p cbr -e 500 -c 0 -i 23 -a 0 -x {2.0 1.0 12 ------- null}
+ -t 0.595 -s 2 -d 1 -p cbr -e 500 -c 0 -i 46 -a 0 -x {2.0 1.0 19 ------- null}
r -t 0.5956 -s 0 -d 1 -p tcp -e 1040 -c 0 -i 32 -a 0 -x {0.0 1.1 10 ------- null}
+ -t 0.5956 -s 1 -d 0 -p ack -e 40 -c 0 -i 47 -a 0 -x {1.1 0.0 10 ------- null}
- -t 0.5956 -s 1 -d 0 -p ack -e 40 -c 0 -i 47 -a 0 -x {1.1 0.0 10 ------- null}
h -t 0.5956 -s 1 -d 0 -p ack -e 40 -c 0 -i 47 -a 0 -x {1.1 0.0 -1 ------- null}
- -t 0.597142857142856 -s 2 -d 1 -p cbr -e 500 -c 0 -i 40 -a 0 -x {2.0 1.0 17 ------- null}
h -t 0.597142857142856 -s 2 -d 1 -p cbr -e 500 -c 0 -i 40 -a 0 -x {2.0 1.0 -1 ------- null}
r -t 0.59744 -s 1 -d 0 -p ack -e 40 -c 0 -i 41 -a 0 -x {1.1 0.0 8 ------- null}
+ -t 0.59744 -s 0 -d 1 -p tcp -e 1040 -c 0 -i 48 -a 0 -x {0.0 1.1 17 ------- null}
+ -t 0.59744 -s 0 -d 1 -p tcp -e 1040 -c 0 -i 49 -a 0 -x {0.0 1.1 18 ------- null}
- -t 0.59808 -s 0 -d 1 -p tcp -e 1040 -c 0 -i 38 -a 0 -x {0.0 1.1 14 ------- null}
h -t 0.59808 -s 0 -d 1 -p tcp -e 1040 -c 0 -i 38 -a 0 -x {0.0 1.1 -1 ------- null}
r -t 0.59976 -s 0 -d 1 -p tcp -e 1040 -c 0 -i 34 -a 0 -x {0.0 1.1 11 ------- null}
+ -t 0.59976 -s 1 -d 0 -p ack -e 40 -c 0 -i 50 -a 0 -x {1.1 0.0 11 ------- null}
- -t 0.59976 -s 1 -d 0 -p ack -e 40 -c 0 -i 50 -a 0 -x {1.1 0.0 11 ------- null}
h -t 0.59976 -s 1 -d 0 -p ack -e 40 -c 0 -i 50 -a 0 -x {1.1 0.0 -1 ------- null}
r -t 0.599999999999999 -s 2 -d 1 -p cbr -e 500 -c 0 -i 25 -a 0 -x {2.0 1.0 13 ------- null}
+ -t 0.6 -s 2 -d 1 -p cbr -e 500 -c 0 -i 51 -a 0 -x {2.0 1.0 20 ------- null}
r -t 0.6016 -s 1 -d 0 -p ack -e 40 -c 0 -i 43 -a 0 -x {1.1 0.0 9 ------- null}
+ -t 0.6016 -s 0 -d 1 -p tcp -e 1040 -c 0 -i 52 -a 0 -x {0.0 1.1 19 ------- null}
+ -t 0.6016 -s 0 -d 1 -p tcp -e 1040 -c 0 -i 53 -a 0 -x {0.0 1.1 20 ------- null}
- -t 0.60224 -s 0 -d 1 -p tcp -e 1040 -c 0 -i 44 -a 0 -x {0.0 1.1 15 ------- null}
h -t 0.60224 -s 0 -d 1 -p tcp -e 1040 -c 0 -i 44 -a 0 -x {0.0 1.1 -1 ------- null}
- -t 0.602857142857142 -s 2 -d 1 -p cbr -e 500 -c 0 -i 42 -a 0 -x {2.0 1.0 18 ------- null}
h -t 0.602857142857142 -s 2 -d 1 -p cbr -e 500 -c 0 -i 42 -a 0 -x {2.0 1.0 -1 ------- null}
r -t 0.60392 -s 0 -d 1 -p tcp -e 1040 -c 0 -i 35 -a 0 -x {0.0 1.1 12 ------- null}
+ -t 0.60392 -s 1 -d 0 -p ack -e 40 -c 0 -i 54 -a 0 -x {1.1 0.0 12 ------- null}
- -t 0.60392 -s 1 -d 0 -p ack -e 40 -c 0 -i 54 -a 0 -x {1.1 0.0 12 ------- null}
h -t 0.60392 -s 1 -d 0 -p ack -e 40 -c 0 -i 54 -a 0 -x {1.1 0.0 -1 ------- null}
+ -t 0.605 -s 2 -d 1 -p cbr -e 500 -c 0 -i 55 -a 0 -x {2.0 1.0 21 ------- null}
r -t 0.605714285714285 -s 2 -d 1 -p cbr -e 500 -c 0 -i 29 -a 0 -x {2.0 1.0 14 ------- null}
r -t 0.60576 -s 1 -d 0 -p ack -e 40 -c 0 -i 47 -a 0 -x {1.1 0.0 10 ------- null}
+ -t 0.60576 -s 0 -d 1 -p tcp -e 1040 -c 0 -i 56 -a 0 -x {0.0 1.1 21 ------- null}
+ -t 0.60576 -s 0 -d 1 -p tcp -e 1040 -c 0 -i 57 -a 0 -x {0.0 1.1 22 ------- null}
- -t 0.6064 -s 0 -d 1 -p tcp -e 1040 -c 0 -i 45 -a 0 -x {0.0 1.1 16 ------- null}
h -t 0.6064 -s 0 -d 1 -p tcp -e 1040 -c 0 -i 45 -a 0 -x {0.0 1.1 -1 ------- null}
r -t 0.60808 -s 0 -d 1 -p tcp -e 1040 -c 0 -i 37 -a 0 -x {0.0 1.1 13 ------- null}
+ -t 0.60808 -s 1 -d 0 -p ack -e 40 -c 0 -i 58 -a 0 -x {1.1 0.0 13 ------- null}
- -t 0.60808 -s 1 -d 0 -p ack -e 40 -c 0 -i 58 -a 0 -x {1.1 0.0 13 ------- null}
h -t 0.60808 -s 1 -d 0 -p ack -e 40 -c 0 -i 58 -a 0 -x {1.1 0.0 -1 ------- null}
- -t 0.608571428571428 -s 2 -d 1 -p cbr -e 500 -c 0 -i 46 -a 0 -x {2.0 1.0 19 ------- null}
h -t 0.608571428571428 -s 2 -d 1 -p cbr -e 500 -c 0 -i 46 -a 0 -x {2.0 1.0 -1 ------- null}
r -t 0.60992 -s 1 -d 0 -p ack -e 40 -c 0 -i 50 -a 0 -x {1.1 0.0 11 ------- null}
+ -t 0.60992 -s 0 -d 1 -p tcp -e 1040 -c 0 -i 59 -a 0 -x {0.0 1.1 23 ------- null}
+ -t 0.60992 -s 0 -d 1 -p tcp -e 1040 -c 0 -i 60 -a 0 -x {0.0 1.1 24 ------- null}
+ -t 0.61 -s 2 -d 1 -p cbr -e 500 -c 0 -i 61 -a 0 -x {2.0 1.0 22 ------- null}
- -t 0.61056 -s 0 -d 1 -p tcp -e 1040 -c 0 -i 48 -a 0 -x {0.0 1.1 17 ------- null}
h -t 0.61056 -s 0 -d 1 -p tcp -e 1040 -c 0 -i 48 -a 0 -x {0.0 1.1 -1 ------- null}
r -t 0.611428571428571 -s 2 -d 1 -p cbr -e 500 -c 0 -i 33 -a 0 -x {2.0 1.0 15 ------- null}
r -t 0.61224 -s 0 -d 1 -p tcp -e 1040 -c 0 -i 38 -a 0 -x {0.0 1.1 14 ------- null}
+ -t 0.61224 -s 1 -d 0 -p ack -e 40 -c 0 -i 62 -a 0 -x {1.1 0.0 14 ------- null}
- -t 0.61224 -s 1 -d 0 -p ack -e 40 -c 0 -i 62 -a 0 -x {1.1 0.0 14 ------- null}
h -t 0.61224 -s 1 -d 0 -p ack -e 40 -c 0 -i 62 -a 0 -x {1.1 0.0 -1 ------- null}
r -t 0.61408 -s 1 -d 0 -p ack -e 40 -c 0 -i 54 -a 0 -x {1.1 0.0 12 ------- null}
+ -t 0.61408 -s 0 -d 1 -p tcp -e 1040 -c 0 -i 63 -a 0 -x {0.0 1.1 25 ------- null}
+ -t 0.61408 -s 0 -d 1 -p tcp -e 1040 -c 0 -i 64 -a 0 -x {0.0 1.1 26 ------- null}
- -t 0.614285714285713 -s 2 -d 1 -p cbr -e 500 -c 0 -i 51 -a 0 -x {2.0 1.0 20 ------- null}
h -t 0.614285714285713 -s 2 -d 1 -p cbr -e 500 -c 0 -i 51 -a 0 -x {2.0 1.0 -1 ------- null}
- -t 0.61472 -s 0 -d 1 -p tcp -e 1040 -c 0 -i 49 -a 0 -x {0.0 1.1 18 ------- null}
h -t 0.61472 -s 0 -d 1 -p tcp -e 1040 -c 0 -i 49 -a 0 -x {0.0 1.1 -1 ------- null}
+ -t 0.615 -s 2 -d 1 -p cbr -e 500 -c 0 -i 65 -a 0 -x {2.0 1.0 23 ------- null}
r -t 0.6164 -s 0 -d 1 -p tcp -e 1040 -c 0 -i 44 -a 0 -x {0.0 1.1 15 ------- null}
+ -t 0.6164 -s 1 -d 0 -p ack -e 40 -c 0 -i 66 -a 0 -x {1.1 0.0 15 ------- null}
- -t 0.6164 -s 1 -d 0 -p ack -e 40 -c 0 -i 66 -a 0 -x {1.1 0.0 15 ------- null}
h -t 0.6164 -s 1 -d 0 -p ack -e 40 -c 0 -i 66 -a 0 -x {1.1 0.0 -1 ------- null}
r -t 0.617142857142856 -s 2 -d 1 -p cbr -e 500 -c 0 -i 36 -a 0 -x {2.0 1.0 16 ------- null}
r -t 0.61824 -s 1 -d 0 -p ack -e 40 -c 0 -i 58 -a 0 -x {1.1 0.0 13 ------- null}
+ -t 0.61824 -s 0 -d 1 -p tcp -e 1040 -c 0 -i 67 -a 0 -x {0.0 1.1 27 ------- null}
+ -t 0.61824 -s 0 -d 1 -p tcp -e 1040 -c 0 -i 68 -a 0 -x {0.0 1.1 28 ------- null}
d -t 0.61824 -s 0 -d 1 -p tcp -e 1040 -c 0 -i 68 -a 0 -x {0.0 1.1 28 ------- null}
- -t 0.61888 -s 0 -d 1 -p tcp -e 1040 -c 0 -i 52 -a 0 -x {0.0 1.1 19 ------- null}
h -t 0.61888 -s 0 -d 1 -p tcp -e 1040 -c 0 -i 52 -a 0 -x {0.0 1.1 -1 ------- null}
- -t 0.619999999999999 -s 2 -d 1 -p cbr -e 500 -c 0 -i 55 -a 0 -x {2.0 1.0 21 ------- null}
h -t 0.619999999999999 -s 2 -d 1 -p cbr -e 500 -c 0 -i 55 -a 0 -x {2.0 1.0 -1 ------- null}
+ -t 0.62 -s 2 -d 1 -p cbr -e 500 -c 0 -i 69 -a 0 -x {2.0 1.0 24 ------- null}
r -t 0.62056 -s 0 -d 1 -p tcp -e 1040 -c 0 -i 45 -a 0 -x {0.0 1.1 16 ------- null}
+ -t 0.62056 -s 1 -d 0 -p ack -e 40 -c 0 -i 70 -a 0 -x {1.1 0.0 16 ------- null}
- -t 0.62056 -s 1 -d 0 -p ack -e 40 -c 0 -i 70 -a 0 -x {1.1 0.0 16 ------- null}
h -t 0.62056 -s 1 -d 0 -p ack -e 40 -c 0 -i 70 -a 0 -x {1.1 0.0 -1 ------- null}
r -t 0.6224 -s 1 -d 0 -p ack -e 40 -c 0 -i 62 -a 0 -x {1.1 0.0 14 ------- null}
+ -t 0.6224 -s 0 -d 1 -p tcp -e 1040 -c 0 -i 71 -a 0 -x {0.0 1.1 29 ------- null}
+ -t 0.6224 -s 0 -d 1 -p tcp -e 1040 -c 0 -i 72 -a 0 -x {0.0 1.1 30 ------- null}
d -t 0.6224 -s 0 -d 1 -p tcp -e 1040 -c 0 -i 72 -a 0 -x {0.0 1.1 30 ------- null}
r -t 0.622857142857142 -s 2 -d 1 -p cbr -e 500 -c 0 -i 40 -a 0 -x {2.0 1.0 17 ------- null}
- -t 0.62304 -s 0 -d 1 -p tcp -e 1040 -c 0 -i 53 -a 0 -x {0.0 1.1 20 ------- null}
h -t 0.62304 -s 0 -d 1 -p tcp -e 1040 -c 0 -i 53 -a 0 -x {0.0 1.1 -1 ------- null}
r -t 0.62472 -s 0 -d 1 -p tcp -e 1040 -c 0 -i 48 -a 0 -x {0.0 1.1 17 ------- null}
+ -t 0.62472 -s 1 -d 0 -p ack -e 40 -c 0 -i 73 -a 0 -x {1.1 0.0 17 ------- null}
- -t 0.62472 -s 1 -d 0 -p ack -e 40 -c 0 -i 73 -a 0 -x {1.1 0.0 17 ------- null}
h -t 0.62472 -s 1 -d 0 -p ack -e 40 -c 0 -i 73 -a 0 -x {1.1 0.0 -1 ------- null}
+ -t 0.625 -s 2 -d 1 -p cbr -e 500 -c 0 -i 74 -a 0 -x {2.0 1.0 25 ------- null}
- -t 0.625714285714285 -s 2 -d 1 -p cbr -e 500 -c 0 -i 61 -a 0 -x {2.0 1.0 22 ------- null}
h -t 0.625714285714285 -s 2 -d 1 -p cbr -e 500 -c 0 -i 61 -a 0 -x {2.0 1.0 -1 ------- null}
r -t 0.62656 -s 1 -d 0 -p ack -e 40 -c 0 -i 66 -a 0 -x {1.1 0.0 15 ------- null}
+ -t 0.62656 -s 0 -d 1 -p tcp -e 1040 -c 0 -i 75 -a 0 -x {0.0 1.1 31 ------- null}
+ -t 0.62656 -s 0 -d 1 -p tcp -e 1040 -c 0 -i 76 -a 0 -x {0.0 1.1 32 ------- null}
d -t 0.62656 -s 0 -d 1 -p tcp -e 1040 -c 0 -i 76 -a 0 -x {0.0 1.1 32 ------- null}
- -t 0.6272 -s 0 -d 1 -p tcp -e 1040 -c 0 -i 56 -a 0 -x {0.0 1.1 21 ------- null}
h -t 0.6272 -s 0 -d 1 -p tcp -e 1040 -c 0 -i 56 -a 0 -x {0.0 1.1 -1 ------- null}
r -t 0.628571428571428 -s 2 -d 1 -p cbr -e 500 -c 0 -i 42 -a 0 -x {2.0 1.0 18 ------- null}
r -t 0.62888 -s 0 -d 1 -p tcp -e 1040 -c 0 -i 49 -a 0 -x {0.0 1.1 18 ------- null}
+ -t 0.62888 -s 1 -d 0 -p ack -e 40 -c 0 -i 77 -a 0 -x {1.1 0.0 18 ------- null}
- -t 0.62888 -s 1 -d 0 -p ack -e 40 -c 0 -i 77 -a 0 -x {1.1 0.0 18 ------- null}
h -t 0.62888 -s 1 -d 0 -p ack -e 40 -c 0 -i 77 -a 0 -x {1.1 0.0 -1 ------- null}
+ -t 0.63 -s 2 -d 1 -p cbr -e 500 -c 0 -i 78 -a 0 -x {2.0 1.0 26 ------- null}
r -t 0.63072 -s 1 -d 0 -p ack -e 40 -c 0 -i 70 -a 0 -x {1.1 0.0 16 ------- null}
+ -t 0.63072 -s 0 -d 1 -p tcp -e 1040 -c 0 -i 79 -a 0 -x {0.0 1.1 33 ------- null}
+ -t 0.63072 -s 0 -d 1 -p tcp -e 1040 -c 0 -i 80 -a 0 -x {0.0 1.1 34 ------- null}
d -t 0.63072 -s 0 -d 1 -p tcp -e 1040 -c 0 -i 80 -a 0 -x {0.0 1.1 34 ------- null}
- -t 0.63136 -s 0 -d 1 -p tcp -e 1040 -c 0 -i 57 -a 0 -x {0.0 1.1 22 ------- null}
h -t 0.63136 -s 0 -d 1 -p tcp -e 1040 -c 0 -i 57 -a 0 -x {0.0 1.1 -1 ------- null}
- -t 0.63142857142857 -s 2 -d 1 -p cbr -e 500 -c 0 -i 65 -a 0 -x {2.0 1.0 23 ------- null}
h -t 0.63142857142857 -s 2 -d 1 -p cbr -e 500 -c 0 -i 65 -a 0 -x {2.0 1.0 -1 ------- null}
r -t 0.63304 -s 0 -d 1 -p tcp -e 1040 -c 0 -i 52 -a 0 -x {0.0 1.1 19 ------- null}
+ -t 0.63304 -s 1 -d 0 -p ack -e 40 -c 0 -i 81 -a 0 -x {1.1 0.0 19 ------- null}
- -t 0.63304 -s 1 -d 0 -p ack -e 40 -c 0 -i 81 -a 0 -x {1.1 0.0 19 ------- null}
h -t 0.63304 -s 1 -d 0 -p ack -e 40 -c 0 -i 81 -a 0 -x {1.1 0.0 -1 ------- null}
r -t 0.634285714285713 -s 2 -d 1 -p cbr -e 500 -c 0 -i 46 -a 0 -x {2.0 1.0 19 ------- null}
r -t 0.63488 -s 1 -d 0 -p ack -e 40 -c 0 -i 73 -a 0 -x {1.1 0.0 17 ------- null}
+ -t 0.63488 -s 0 -d 1 -p tcp -e 1040 -c 0 -i 82 -a 0 -x {0.0 1.1 35 ------- null}
+ -t 0.63488 -s 0 -d 1 -p tcp -e 1040 -c 0 -i 83 -a 0 -x {0.0 1.1 36 ------- null}
d -t 0.63488 -s 0 -d 1 -p tcp -e 1040 -c 0 -i 83 -a 0 -x {0.0 1.1 36 ------- null}
+ -t 0.635 -s 2 -d 1 -p cbr -e 500 -c 0 -i 84 -a 0 -x {2.0 1.0 27 ------- null}
- -t 0.635520000000001 -s 0 -d 1 -p tcp -e 1040 -c 0 -i 59 -a 0 -x {0.0 1.1 23 ------- null}
h -t 0.635520000000001 -s 0 -d 1 -p tcp -e 1040 -c 0 -i 59 -a 0 -x {0.0 1.1 -1 ------- null}
- -t 0.637142857142856 -s 2 -d 1 -p cbr -e 500 -c 0 -i 69 -a 0 -x {2.0 1.0 24 ------- null}
h -t 0.637142857142856 -s 2 -d 1 -p cbr -e 500 -c 0 -i 69 -a 0 -x {2.0 1.0 -1 ------- null}
r -t 0.6372 -s 0 -d 1 -p tcp -e 1040 -c 0 -i 53 -a 0 -x {0.0 1.1 20 ------- null}
+ -t 0.6372 -s 1 -d 0 -p ack -e 40 -c 0 -i 85 -a 0 -x {1.1 0.0 20 ------- null}
- -t 0.6372 -s 1 -d 0 -p ack -e 40 -c 0 -i 85 -a 0 -x {1.1 0.0 20 ------- null}
h -t 0.6372 -s 1 -d 0 -p ack -e 40 -c 0 -i 85 -a 0 -x {1.1 0.0 -1 ------- null}
r -t 0.63904 -s 1 -d 0 -p ack -e 40 -c 0 -i 77 -a 0 -x {1.1 0.0 18 ------- null}
+ -t 0.63904 -s 0 -d 1 -p tcp -e 1040 -c 0 -i 86 -a 0 -x {0.0 1.1 37 ------- null}
+ -t 0.63904 -s 0 -d 1 -p tcp -e 1040 -c 0 -i 87 -a 0 -x {0.0 1.1 38 ------- null}
d -t 0.63904 -s 0 -d 1 -p tcp -e 1040 -c 0 -i 87 -a 0 -x {0.0 1.1 38 ------- null}
- -t 0.639680000000001 -s 0 -d 1 -p tcp -e 1040 -c 0 -i 60 -a 0 -x {0.0 1.1 24 ------- null}
h -t 0.639680000000001 -s 0 -d 1 -p tcp -e 1040 -c 0 -i 60 -a 0 -x {0.0 1.1 -1 ------- null}
r -t 0.639999999999999 -s 2 -d 1 -p cbr -e 500 -c 0 -i 51 -a 0 -x {2.0 1.0 20 ------- null}
+ -t 0.64 -s 2 -d 1 -p cbr -e 500 -c 0 -i 88 -a 0 -x {2.0 1.0 28 ------- null}
r -t 0.64136 -s 0 -d 1 -p tcp -e 1040 -c 0 -i 56 -a 0 -x {0.0 1.1 21 ------- null}
+ -t 0.64136 -s 1 -d 0 -p ack -e 40 -c 0 -i 89 -a 0 -x {1.1 0.0 21 ------- null}
- -t 0.64136 -s 1 -d 0 -p ack -e 40 -c 0 -i 89 -a 0 -x {1.1 0.0 21 ------- null}
h -t 0.64136 -s 1 -d 0 -p ack -e 40 -c 0 -i 89 -a 0 -x {1.1 0.0 -1 ------- null}
- -t 0.642857142857142 -s 2 -d 1 -p cbr -e 500 -c 0 -i 74 -a 0 -x {2.0 1.0 25 ------- null}
h -t 0.642857142857142 -s 2 -d 1 -p cbr -e 500 -c 0 -i 74 -a 0 -x {2.0 1.0 -1 ------- null}
r -t 0.6432 -s 1 -d 0 -p ack -e 40 -c 0 -i 81 -a 0 -x {1.1 0.0 19 ------- null}
+ -t 0.6432 -s 0 -d 1 -p tcp -e 1040 -c 0 -i 90 -a 0 -x {0.0 1.1 39 ------- null}
- -t 0.643840000000001 -s 0 -d 1 -p tcp -e 1040 -c 0 -i 63 -a 0 -x {0.0 1.1 25 ------- null}
h -t 0.643840000000001 -s 0 -d 1 -p tcp -e 1040 -c 0 -i 63 -a 0 -x {0.0 1.1 -1 ------- null}
+ -t 0.645 -s 2 -d 1 -p cbr -e 500 -c 0 -i 91 -a 0 -x {2.0 1.0 29 ------- null}
r -t 0.64552 -s 0 -d 1 -p tcp -e 1040 -c 0 -i 57 -a 0 -x {0.0 1.1 22 ------- null}
+ -t 0.64552 -s 1 -d 0 -p ack -e 40 -c 0 -i 92 -a 0 -x {1.1 0.0 22 ------- null}
- -t 0.64552 -s 1 -d 0 -p ack -e 40 -c 0 -i 92 -a 0 -x {1.1 0.0 22 ------- null}
h -t 0.64552 -s 1 -d 0 -p ack -e 40 -c 0 -i 92 -a 0 -x {1.1 0.0 -1 ------- null}
r -t 0.645714285714285 -s 2 -d 1 -p cbr -e 500 -c 0 -i 55 -a 0 -x {2.0 1.0 21 ------- null}
r -t 0.64736 -s 1 -d 0 -p ack -e 40 -c 0 -i 85 -a 0 -x {1.1 0.0 20 ------- null}
+ -t 0.64736 -s 0 -d 1 -p tcp -e 1040 -c 0 -i 93 -a 0 -x {0.0 1.1 40 ------- null}
- -t 0.648000000000001 -s 0 -d 1 -p tcp -e 1040 -c 0 -i 64 -a 0 -x {0.0 1.1 26 ------- null}
h -t 0.648000000000001 -s 0 -d 1 -p tcp -e 1040 -c 0 -i 64 -a 0 -x {0.0 1.1 -1 ------- null}
- -t 0.648571428571427 -s 2 -d 1 -p cbr -e 500 -c 0 -i 78 -a 0 -x {2.0 1.0 26 ------- null}
h -t 0.648571428571427 -s 2 -d 1 -p cbr -e 500 -c 0 -i 78 -a 0 -x {2.0 1.0 -1 ------- null}
r -t 0.64968 -s 0 -d 1 -p tcp -e 1040 -c 0 -i 59 -a 0 -x {0.0 1.1 23 ------- null}
+ -t 0.64968 -s 1 -d 0 -p ack -e 40 -c 0 -i 94 -a 0 -x {1.1 0.0 23 ------- null}
- -t 0.64968 -s 1 -d 0 -p ack -e 40 -c 0 -i 94 -a 0 -x {1.1 0.0 23 ------- null}
h -t 0.64968 -s 1 -d 0 -p ack -e 40 -c 0 -i 94 -a 0 -x {1.1 0.0 -1 ------- null}
+ -t 0.65 -s 2 -d 1 -p cbr -e 500 -c 0 -i 95 -a 0 -x {2.0 1.0 30 ------- null}
r -t 0.65142857142857 -s 2 -d 1 -p cbr -e 500 -c 0 -i 61 -a 0 -x {2.0 1.0 22 ------- null}
r -t 0.65152 -s 1 -d 0 -p ack -e 40 -c 0 -i 89 -a 0 -x {1.1 0.0 21 ------- null}
+ -t 0.65152 -s 0 -d 1 -p tcp -e 1040 -c 0 -i 96 -a 0 -x {0.0 1.1 41 ------- null}
- -t 0.652160000000001 -s 0 -d 1 -p tcp -e 1040 -c 0 -i 67 -a 0 -x {0.0 1.1 27 ------- null}
h -t 0.652160000000001 -s 0 -d 1 -p tcp -e 1040 -c 0 -i 67 -a 0 -x {0.0 1.1 -1 ------- null}
r -t 0.653840000000001 -s 0 -d 1 -p tcp -e 1040 -c 0 -i 60 -a 0 -x {0.0 1.1 24 ------- null}
+ -t 0.653840000000001 -s 1 -d 0 -p ack -e 40 -c 0 -i 97 -a 0 -x {1.1 0.0 24 ------- null}
- -t 0.653840000000001 -s 1 -d 0 -p ack -e 40 -c 0 -i 97 -a 0 -x {1.1 0.0 24 ------- null}
h -t 0.653840000000001 -s 1 -d 0 -p ack -e 40 -c 0 -i 97 -a 0 -x {1.1 0.0 -1 ------- null}
- -t 0.654285714285713 -s 2 -d 1 -p cbr -e 500 -c 0 -i 84 -a 0 -x {2.0 1.0 27 ------- null}
h -t 0.654285714285713 -s 2 -d 1 -p cbr -e 500 -c 0 -i 84 -a 0 -x {2.0 1.0 -1 ------- null}
+ -t 0.655 -s 2 -d 1 -p cbr -e 500 -c 0 -i 98 -a 0 -x {2.0 1.0 31 ------- null}
r -t 0.65568 -s 1 -d 0 -p ack -e 40 -c 0 -i 92 -a 0 -x {1.1 0.0 22 ------- null}
+ -t 0.65568 -s 0 -d 1 -p tcp -e 1040 -c 0 -i 99 -a 0 -x {0.0 1.1 42 ------- null}
- -t 0.656320000000001 -s 0 -d 1 -p tcp -e 1040 -c 0 -i 71 -a 0 -x {0.0 1.1 29 ------- null}
h -t 0.656320000000001 -s 0 -d 1 -p tcp -e 1040 -c 0 -i 71 -a 0 -x {0.0 1.1 -1 ------- null}
r -t 0.657142857142856 -s 2 -d 1 -p cbr -e 500 -c 0 -i 65 -a 0 -x {2.0 1.0 23 ------- null}
r -t 0.658000000000001 -s 0 -d 1 -p tcp -e 1040 -c 0 -i 63 -a 0 -x {0.0 1.1 25 ------- null}
+ -t 0.658000000000001 -s 1 -d 0 -p ack -e 40 -c 0 -i 100 -a 0 -x {1.1 0.0 25 ------- null}
- -t 0.658000000000001 -s 1 -d 0 -p ack -e 40 -c 0 -i 100 -a 0 -x {1.1 0.0 25 ------- null}
h -t 0.658000000000001 -s 1 -d 0 -p ack -e 40 -c 0 -i 100 -a 0 -x {1.1 0.0 -1 ------- null}
r -t 0.65984 -s 1 -d 0 -p ack -e 40 -c 0 -i 94 -a 0 -x {1.1 0.0 23 ------- null}
+ -t 0.65984 -s 0 -d 1 -p tcp -e 1040 -c 0 -i 101 -a 0 -x {0.0 1.1 43 ------- null}
- -t 0.659999999999999 -s 2 -d 1 -p cbr -e 500 -c 0 -i 88 -a 0 -x {2.0 1.0 28 ------- null}
h -t 0.659999999999999 -s 2 -d 1 -p cbr -e 500 -c 0 -i 88 -a 0 -x {2.0 1.0 -1 ------- null}