+ 1 1 2 cbr 500 ------- 2 1.0 3.1 0 0
- 1 1 2 cbr 500 ------- 2 1.0 3.1 0 0
+ 1.002 1 2 cbr 500 ------- 2 1.0 3.1 1 1
- 1.002 1 2 cbr 500 ------- 2 1.0 3.1 1 1
+ 1.004 1 2 cbr 500 ------- 2 1.0 3.1 2 2
- 1.004 1 2 cbr 500 ------- 2 1.0 3.1 2 2
+ 1.006 1 2 cbr 500 ------- 2 1.0 3.1 3 3
- 1.006 1 2 cbr 500 ------- 2 1.0 3.1 3 3
+ 1.008 1 2 cbr 500 ------- 2 1.0 3.1 4 4
- 1.008 1 2 cbr 500 ------- 2 1.0 3.1 4 4
+ 1.01 1 2 cbr 500 ------- 2 1.0 3.1 5 5
- 1.01 1 2 cbr 500 ------- 2 1.0 3.1 5 5
r 1.012 1 2 cbr 500 ------- 2 1.0 3.1 0 0
+ 1.012 2 3 cbr 500 ------- 2 1.0 3.1 0 0
- 1.012 2 3 cbr 500 ------- 2 1.0 3.1 0 0
+ 1.012 1 2 cbr 500 ------- 2 1.0 3.1 6 6
- 1.012 1 2 cbr 500 ------- 2 1.0 3.1 6 6
r 1.014 1 2 cbr 500 ------- 2 1.0 3.1 1 1
+ 1.014 2 3 cbr 500 ------- 2 1.0 3.1 1 1
- 1.014 2 3 cbr 500 ------- 2 1.0 3.1 1 1
+ 1.014 1 2 cbr 500 ------- 2 1.0 3.1 7 7
- 1.014 1 2 cbr 500 ------- 2 1.0 3.1 7 7
r 1.016 1 2 cbr 500 ------- 2 1.0 3.1 2 2
+ 1.016 2 3 cbr 500 ------- 2 1.0 3.1 2 2
- 1.016 2 3 cbr 500 ------- 2 1.0 3.1 2 2
+ 1.016 1 2 cbr 500 ------- 2 1.0 3.1 8 8
- 1.016 1 2 cbr 500 ------- 2 1.0 3.1 8 8
r 1.018 1 2 cbr 500 ------- 2 1.0 3.1 3 3
+ 1.018 2 3 cbr 500 ------- 2 1.0 3.1 3 3
- 1.018 2 3 cbr 500 ------- 2 1.0 3.1 3 3
+ 1.018 1 2 cbr 500 ------- 2 1.0 3.1 9 9
- 1.018 1 2 cbr 500 ------- 2 1.0 3.1 9 9
r 1.02 1 2 cbr 500 ------- 2 1.0 3.1 4 4
+ 1.02 2 3 cbr 500 ------- 2 1.0 3.1 4 4
- 1.02 2 3 cbr 500 ------- 2 1.0 3.1 4 4
+ 1.02 1 2 cbr 500 ------- 2 1.0 3.1 10 10
- 1.02 1 2 cbr 500 ------- 2 1.0 3.1 10 10
r 1.022 1 2 cbr 500 ------- 2 1.0 3.1 5 5
+ 1.022 2 3 cbr 500 ------- 2 1.0 3.1 5 5
- 1.022 2 3 cbr 500 ------- 2 1.0 3.1 5 5
+ 1.022 1 2 cbr 500 ------- 2 1.0 3.1 11 11
- 1.022 1 2 cbr 500 ------- 2 1.0 3.1 11 11
r 1.024 1 2 cbr 500 ------- 2 1.0 3.1 6 6
+ 1.024 2 3 cbr 500 ------- 2 1.0 3.1 6 6
- 1.024 2 3 cbr 500 ------- 2 1.0 3.1 6 6
+ 1.024 1 2 cbr 500 ------- 2 1.0 3.1 12 12
- 1.024 1 2 cbr 500 ------- 2 1.0 3.1 12 12
r 1.026 1 2 cbr 500 ------- 2 1.0 3.1 7 7
+ 1.026 2 3 cbr 500 ------- 2 1.0 3.1 7 7
- 1.026 2 3 cbr 500 ------- 2 1.0 3.1 7 7
+ 1.026 1 2 cbr 500 ------- 2 1.0 3.1 13 13
- 1.026 1 2 cbr 500 ------- 2 1.0 3.1 13 13
r 1.028 1 2 cbr 500 ------- 2 1.0 3.1 8 8
+ 1.028 2 3 cbr 500 ------- 2 1.0 3.1 8 8
- 1.028 2 3 cbr 500 ------- 2 1.0 3.1 8 8
+ 1.028 1 2 cbr 500 ------- 2 1.0 3.1 14 14
- 1.028 1 2 cbr 500 ------- 2 1.0 3.1 14 14
r 1.03 1 2 cbr 500 ------- 2 1.0 3.1 9 9
+ 1.03 2 3 cbr 500 ------- 2 1.0 3.1 9 9
- 1.03 2 3 cbr 500 ------- 2 1.0 3.1 9 9
+ 1.03 1 2 cbr 500 ------- 2 1.0 3.1 15 15
- 1.03 1 2 cbr 500 ------- 2 1.0 3.1 15 15
r 1.032 1 2 cbr 500 ------- 2 1.0 3.1 10 10
+ 1.032 2 3 cbr 500 ------- 2 1.0 3.1 10 10
- 1.032 2 3 cbr 500 ------- 2 1.0 3.1 10 10
+ 1.032 1 2 cbr 500 ------- 2 1.0 3.1 16 16
- 1.032 1 2 cbr 500 ------- 2 1.0 3.1 16 16
r 1.033333 2 3 cbr 500 ------- 2 1.0 3.1 0 0
r 1.034 1 2 cbr 500 ------- 2 1.0 3.1 11 11
+ 1.034 2 3 cbr 500 ------- 2 1.0 3.1 11 11
- 1.034 2 3 cbr 500 ------- 2 1.0 3.1 11 11
+ 1.034 1 2 cbr 500 ------- 2 1.0 3.1 17 17
- 1.034 1 2 cbr 500 ------- 2 1.0 3.1 17 17
r 1.035333 2 3 cbr 500 ------- 2 1.0 3.1 1 1
r 1.036 1 2 cbr 500 ------- 2 1.0 3.1 12 12
+ 1.036 2 3 cbr 500 ------- 2 1.0 3.1 12 12
- 1.036 2 3 cbr 500 ------- 2 1.0 3.1 12 12
+ 1.036 1 2 cbr 500 ------- 2 1.0 3.1 18 18
- 1.036 1 2 cbr 500 ------- 2 1.0 3.1 18 18
r 1.037333 2 3 cbr 500 ------- 2 1.0 3.1 2 2
r 1.038 1 2 cbr 500 ------- 2 1.0 3.1 13 13
+ 1.038 2 3 cbr 500 ------- 2 1.0 3.1 13 13
- 1.038 2 3 cbr 500 ------- 2 1.0 3.1 13 13
+ 1.038 1 2 cbr 500 ------- 2 1.0 3.1 19 19
- 1.038 1 2 cbr 500 ------- 2 1.0 3.1 19 19
r 1.039333 2 3 cbr 500 ------- 2 1.0 3.1 3 3
r 1.04 1 2 cbr 500 ------- 2 1.0 3.1 14 14
+ 1.04 2 3 cbr 500 ------- 2 1.0 3.1 14 14
- 1.04 2 3 cbr 500 ------- 2 1.0 3.1 14 14
+ 1.04 1 2 cbr 500 ------- 2 1.0 3.1 20 20
- 1.04 1 2 cbr 500 ------- 2 1.0 3.1 20 20
r 1.041333 2 3 cbr 500 ------- 2 1.0 3.1 4 4
r 1.042 1 2 cbr 500 ------- 2 1.0 3.1 15 15
+ 1.042 2 3 cbr 500 ------- 2 1.0 3.1 15 15
- 1.042 2 3 cbr 500 ------- 2 1.0 3.1 15 15
+ 1.042 1 2 cbr 500 ------- 2 1.0 3.1 21 21
- 1.042 1 2 cbr 500 ------- 2 1.0 3.1 21 21
r 1.043333 2 3 cbr 500 ------- 2 1.0 3.1 5 5
r 1.044 1 2 cbr 500 ------- 2 1.0 3.1 16 16
+ 1.044 2 3 cbr 500 ------- 2 1.0 3.1 16 16
- 1.044 2 3 cbr 500 ------- 2 1.0 3.1 16 16
+ 1.044 1 2 cbr 500 ------- 2 1.0 3.1 22 22
- 1.044 1 2 cbr 500 ------- 2 1.0 3.1 22 22
r 1.045333 2 3 cbr 500 ------- 2 1.0 3.1 6 6
r 1.046 1 2 cbr 500 ------- 2 1.0 3.1 17 17
+ 1.046 2 3 cbr 500 ------- 2 1.0 3.1 17 17
- 1.046 2 3 cbr 500 ------- 2 1.0 3.1 17 17
+ 1.046 1 2 cbr 500 ------- 2 1.0 3.1 23 23
- 1.046 1 2 cbr 500 ------- 2 1.0 3.1 23 23
r 1.047333 2 3 cbr 500 ------- 2 1.0 3.1 7 7
r 1.048 1 2 cbr 500 ------- 2 1.0 3.1 18 18
+ 1.048 2 3 cbr 500 ------- 2 1.0 3.1 18 18
- 1.048 2 3 cbr 500 ------- 2 1.0 3.1 18 18
+ 1.048 1 2 cbr 500 ------- 2 1.0 3.1 24 24
- 1.048 1 2 cbr 500 ------- 2 1.0 3.1 24 24
r 1.049333 2 3 cbr 500 ------- 2 1.0 3.1 8 8
r 1.05 1 2 cbr 500 ------- 2 1.0 3.1 19 19
+ 1.05 2 3 cbr 500 ------- 2 1.0 3.1 19 19
- 1.05 2 3 cbr 500 ------- 2 1.0 3.1 19 19
+ 1.05 1 2 cbr 500 ------- 2 1.0 3.1 25 25
- 1.05 1 2 cbr 500 ------- 2 1.0 3.1 25 25
r 1.051333 2 3 cbr 500 ------- 2 1.0 3.1 9 9
r 1.052 1 2 cbr 500 ------- 2 1.0 3.1 20 20
+ 1.052 2 3 cbr 500 ------- 2 1.0 3.1 20 20
- 1.052 2 3 cbr 500 ------- 2 1.0 3.1 20 20
+ 1.052 1 2 cbr 500 ------- 2 1.0 3.1 26 26
- 1.052 1 2 cbr 500 ------- 2 1.0 3.1 26 26
r 1.053333 2 3 cbr 500 ------- 2 1.0 3.1 10 10
r 1.054 1 2 cbr 500 ------- 2 1.0 3.1 21 21
+ 1.054 2 3 cbr 500 ------- 2 1.0 3.1 21 21
- 1.054 2 3 cbr 500 ------- 2 1.0 3.1 21 21
+ 1.054 1 2 cbr 500 ------- 2 1.0 3.1 27 27
- 1.054 1 2 cbr 500 ------- 2 1.0 3.1 27 27
r 1.055333 2 3 cbr 500 ------- 2 1.0 3.1 11 11
r 1.056 1 2 cbr 500 ------- 2 1.0 3.1 22 22
+ 1.056 2 3 cbr 500 ------- 2 1.0 3.1 22 22
- 1.056 2 3 cbr 500 ------- 2 1.0 3.1 22 22
+ 1.056 1 2 cbr 500 ------- 2 1.0 3.1 28 28
- 1.056 1 2 cbr 500 ------- 2 1.0 3.1 28 28
r 1.057333 2 3 cbr 500 ------- 2 1.0 3.1 12 12
r 1.058 1 2 cbr 500 ------- 2 1.0 3.1 23 23
+ 1.058 2 3 cbr 500 ------- 2 1.0 3.1 23 23
- 1.058 2 3 cbr 500 ------- 2 1.0 3.1 23 23
+ 1.058 1 2 cbr 500 ------- 2 1.0 3.1 29 29
- 1.058 1 2 cbr 500 ------- 2 1.0 3.1 29 29
r 1.059333 2 3 cbr 500 ------- 2 1.0 3.1 13 13
r 1.06 1 2 cbr 500 ------- 2 1.0 3.1 24 24
+ 1.06 2 3 cbr 500 ------- 2 1.0 3.1 24 24
- 1.06 2 3 cbr 500 ------- 2 1.0 3.1 24 24
+ 1.06 1 2 cbr 500 ------- 2 1.0 3.1 30 30
- 1.06 1 2 cbr 500 ------- 2 1.0 3.1 30 30
r 1.061333 2 3 cbr 500 ------- 2 1.0 3.1 14 14
r 1.062 1 2 cbr 500 ------- 2 1.0 3.1 25 25
+ 1.062 2 3 cbr 500 ------- 2 1.0 3.1 25 25
- 1.062 2 3 cbr 500 ------- 2 1.0 3.1 25 25
+ 1.062 1 2 cbr 500 ------- 2 1.0 3.1 31 31
- 1.062 1 2 cbr 500 ------- 2 1.0 3.1 31 31
r 1.063333 2 3 cbr 500 ------- 2 1.0 3.1 15 15
r 1.064 1 2 cbr 500 ------- 2 1.0 3.1 26 26
+ 1.064 2 3 cbr 500 ------- 2 1.0 3.1 26 26
- 1.064 2 3 cbr 500 ------- 2 1.0 3.1 26 26
+ 1.064 1 2 cbr 500 ------- 2 1.0 3.1 32 32
- 1.064 1 2 cbr 500 ------- 2 1.0 3.1 32 32
r 1.065333 2 3 cbr 500 ------- 2 1.0 3.1 16 16
r 1.066 1 2 cbr 500 ------- 2 1.0 3.1 27 27
+ 1.066 2 3 cbr 500 ------- 2 1.0 3.1 27 27
- 1.066 2 3 cbr 500 ------- 2 1.0 3.1 27 27
+ 1.066 1 2 cbr 500 ------- 2 1.0 3.1 33 33
- 1.066 1 2 cbr 500 ------- 2 1.0 3.1 33 33
r 1.067333 2 3 cbr 500 ------- 2 1.0 3.1 17 17
r 1.068 1 2 cbr 500 ------- 2 1.0 3.1 28 28
+ 1.068 2 3 cbr 500 ------- 2 1.0 3.1 28 28
- 1.068 2 3 cbr 500 ------- 2 1.0 3.1 28 28
+ 1.068 1 2 cbr 500 ------- 2 1.0 3.1 34 34
- 1.068 1 2 cbr 500 ------- 2 1.0 3.1 34 34
r 1.069333 2 3 cbr 500 ------- 2 1.0 3.1 18 18
r 1.07 1 2 cbr 500 ------- 2 1.0 3.1 29 29
+ 1.07 2 3 cbr 500 ------- 2 1.0 3.1 29 29
- 1.07 2 3 cbr 500 ------- 2 1.0 3.1 29 29
+ 1.07 1 2 cbr 500 ------- 2 1.0 3.1 35 35
- 1.07 1 2 cbr 500 ------- 2 1.0 3.1 35 35
r 1.071333 2 3 cbr 500 ------- 2 1.0 3.1 19 19
r 1.072 1 2 cbr 500 ------- 2 1.0 3.1 30 30
+ 1.072 2 3 cbr 500 ------- 2 1.0 3.1 30 30
- 1.072 2 3 cbr 500 ------- 2 1.0 3.1 30 30
+ 1.072 1 2 cbr 500 ------- 2 1.0 3.1 36 36
- 1.072 1 2 cbr 500 ------- 2 1.0 3.1 36 36
r 1.073333 2 3 cbr 500 ------- 2 1.0 3.1 20 20
r 1.074 1 2 cbr 500 ------- 2 1.0 3.1 31 31
+ 1.074 2 3 cbr 500 ------- 2 1.0 3.1 31 31
- 1.074 2 3 cbr 500 ------- 2 1.0 3.1 31 31
+ 1.074 1 2 cbr 500 ------- 2 1.0 3.1 37 37
- 1.074 1 2 cbr 500 ------- 2 1.0 3.1 37 37
r 1.075333 2 3 cbr 500 ------- 2 1.0 3.1 21 21
r 1.076 1 2 cbr 500 ------- 2 1.0 3.1 32 32
+ 1.076 2 3 cbr 500 ------- 2 1.0 3.1 32 32
- 1.076 2 3 cbr 500 ------- 2 1.0 3.1 32 32
+ 1.076 1 2 cbr 500 ------- 2 1.0 3.1 38 38
- 1.076 1 2 cbr 500 ------- 2 1.0 3.1 38 38
r 1.077333 2 3 cbr 500 ------- 2 1.0 3.1 22 22
r 1.078 1 2 cbr 500 ------- 2 1.0 3.1 33 33
+ 1.078 2 3 cbr 500 ------- 2 1.0 3.1 33 33
- 1.078 2 3 cbr 500 ------- 2 1.0 3.1 33 33
+ 1.078 1 2 cbr 500 ------- 2 1.0 3.1 39 39
- 1.078 1 2 cbr 500 ------- 2 1.0 3.1 39 39
r 1.079333 2 3 cbr 500 ------- 2 1.0 3.1 23 23
r 1.08 1 2 cbr 500 ------- 2 1.0 3.1 34 34
+ 1.08 2 3 cbr 500 ------- 2 1.0 3.1 34 34
- 1.08 2 3 cbr 500 ------- 2 1.0 3.1 34 34
+ 1.08 1 2 cbr 500 ------- 2 1.0 3.1 40 40
- 1.08 1 2 cbr 500 ------- 2 1.0 3.1 40 40
r 1.081333 2 3 cbr 500 ------- 2 1.0 3.1 24 24
r 1.082 1 2 cbr 500 ------- 2 1.0 3.1 35 35
+ 1.082 2 3 cbr 500 ------- 2 1.0 3.1 35 35
- 1.082 2 3 cbr 500 ------- 2 1.0 3.1 35 35
+ 1.082 1 2 cbr 500 ------- 2 1.0 3.1 41 41
- 1.082 1 2 cbr 500 ------- 2 1.0 3.1 41 41
r 1.083333 2 3 cbr 500 ------- 2 1.0 3.1 25 25
r 1.084 1 2 cbr 500 ------- 2 1.0 3.1 36 36
+ 1.084 2 3 cbr 500 ------- 2 1.0 3.1 36 36
- 1.084 2 3 cbr 500 ------- 2 1.0 3.1 36 36
+ 1.084 1 2 cbr 500 ------- 2 1.0 3.1 42 42
- 1.084 1 2 cbr 500 ------- 2 1.0 3.1 42 42
r 1.085333 2 3 cbr 500 ------- 2 1.0 3.1 26 26
r 1.086 1 2 cbr 500 ------- 2 1.0 3.1 37 37
+ 1.086 2 3 cbr 500 ------- 2 1.0 3.1 37 37
- 1.086 2 3 cbr 500 ------- 2 1.0 3.1 37 37
+ 1.086 1 2 cbr 500 ------- 2 1.0 3.1 43 43
- 1.086 1 2 cbr 500 ------- 2 1.0 3.1 43 43
r 1.087333 2 3 cbr 500 ------- 2 1.0 3.1 27 27
r 1.088 1 2 cbr 500 ------- 2 1.0 3.1 38 38
+ 1.088 2 3 cbr 500 ------- 2 1.0 3.1 38 38
- 1.088 2 3 cbr 500 ------- 2 1.0 3.1 38 38
+ 1.088 1 2 cbr 500 ------- 2 1.0 3.1 44 44
- 1.088 1 2 cbr 500 ------- 2 1.0 3.1 44 44
r 1.089333 2 3 cbr 500 ------- 2 1.0 3.1 28 28
r 1.09 1 2 cbr 500 ------- 2 1.0 3.1 39 39
+ 1.09 2 3 cbr 500 ------- 2 1.0 3.1 39 39
- 1.09 2 3 cbr 500 ------- 2 1.0 3.1 39 39
+ 1.09 1 2 cbr 500 ------- 2 1.0 3.1 45 45
- 1.09 1 2 cbr 500 ------- 2 1.0 3.1 45 45
r 1.091333 2 3 cbr 500 ------- 2 1.0 3.1 29 29
r 1.092 1 2 cbr 500 ------- 2 1.0 3.1 40 40
+ 1.092 2 3 cbr 500 ------- 2 1.0 3.1 40 40
- 1.092 2 3 cbr 500 ------- 2 1.0 3.1 40 40
+ 1.092 1 2 cbr 500 ------- 2 1.0 3.1 46 46
- 1.092 1 2 cbr 500 ------- 2 1.0 3.1 46 46
r 1.093333 2 3 cbr 500 ------- 2 1.0 3.1 30 30
r 1.094 1 2 cbr 500 ------- 2 1.0 3.1 41 41
+ 1.094 2 3 cbr 500 ------- 2 1.0 3.1 41 41
- 1.094 2 3 cbr 500 ------- 2 1.0 3.1 41 41
+ 1.094 1 2 cbr 500 ------- 2 1.0 3.1 47 47
- 1.094 1 2 cbr 500 ------- 2 1.0 3.1 47 47
r 1.095333 2 3 cbr 500 ------- 2 1.0 3.1 31 31
r 1.096 1 2 cbr 500 ------- 2 1.0 3.1 42 42
+ 1.096 2 3 cbr 500 ------- 2 1.0 3.1 42 42
- 1.096 2 3 cbr 500 ------- 2 1.0 3.1 42 42
+ 1.096 1 2 cbr 500 ------- 2 1.0 3.1 48 48
- 1.096 1 2 cbr 500 ------- 2 1.0 3.1 48 48
r 1.097333 2 3 cbr 500 ------- 2 1.0 3.1 32 32
r 1.098 1 2 cbr 500 ------- 2 1.0 3.1 43 43
+ 1.098 2 3 cbr 500 ------- 2 1.0 3.1 43 43
- 1.098 2 3 cbr 500 ------- 2 1.0 3.1 43 43
+ 1.098 1 2 cbr 500 ------- 2 1.0 3.1 49 49
- 1.098 1 2 cbr 500 ------- 2 1.0 3.1 49 49
r 1.099333 2 3 cbr 500 ------- 2 1.0 3.1 33 33
r 1.1 1 2 cbr 500 ------- 2 1.0 3.1 44 44
+ 1.1 2 3 cbr 500 ------- 2 1.0 3.1 44 44
- 1.1 2 3 cbr 500 ------- 2 1.0 3.1 44 44
+ 1.1 1 2 cbr 500 ------- 2 1.0 3.1 50 50
- 1.1 1 2 cbr 500 ------- 2 1.0 3.1 50 50
r 1.101333 2 3 cbr 500 ------- 2 1.0 3.1 34 34
r 1.102 1 2 cbr 500 ------- 2 1.0 3.1 45 45
+ 1.102 2 3 cbr 500 ------- 2 1.0 3.1 45 45
- 1.102 2 3 cbr 500 ------- 2 1.0 3.1 45 45
+ 1.102 1 2 cbr 500 ------- 2 1.0 3.1 51 51
- 1.102 1 2 cbr 500 ------- 2 1.0 3.1 51 51
r 1.103333 2 3 cbr 500 ------- 2 1.0 3.1 35 35
r 1.104 1 2 cbr 500 ------- 2 1.0 3.1 46 46
+ 1.104 2 3 cbr 500 ------- 2 1.0 3.1 46 46
- 1.104 2 3 cbr 500 ------- 2 1.0 3.1 46 46
+ 1.104 1 2 cbr 500 ------- 2 1.0 3.1 52 52
- 1.104 1 2 cbr 500 ------- 2 1.0 3.1 52 52
r 1.105333 2 3 cbr 500 ------- 2 1.0 3.1 36 36
r 1.106 1 2 cbr 500 ------- 2 1.0 3.1 47 47
+ 1.106 2 3 cbr 500 ------- 2 1.0 3.1 47 47
- 1.106 2 3 cbr 500 ------- 2 1.0 3.1 47 47
+ 1.106 1 2 cbr 500 ------- 2 1.0 3.1 53 53
- 1.106 1 2 cbr 500 ------- 2 1.0 3.1 53 53
r 1.107333 2 3 cbr 500 ------- 2 1.0 3.1 37 37
r 1.108 1 2 cbr 500 ------- 2 1.0 3.1 48 48
+ 1.108 2 3 cbr 500 ------- 2 1.0 3.1 48 48
- 1.108 2 3 cbr 500 ------- 2 1.0 3.1 48 48
+ 1.108 1 2 cbr 500 ------- 2 1.0 3.1 54 54
- 1.108 1 2 cbr 500 ------- 2 1.0 3.1 54 54
r 1.109333 2 3 cbr 500 ------- 2 1.0 3.1 38 38
r 1.11 1 2 cbr 500 ------- 2 1.0 3.1 49 49
+ 1.11 2 3 cbr 500 ------- 2 1.0 3.1 49 49
- 1.11 2 3 cbr 500 ------- 2 1.0 3.1 49 49
+ 1.11 1 2 cbr 500 ------- 2 1.0 3.1 55 55
- 1.11 1 2 cbr 500 ------- 2 1.0 3.1 55 55
r 1.111333 2 3 cbr 500 ------- 2 1.0 3.1 39 39
r 1.112 1 2 cbr 500 ------- 2 1.0 3.1 50 50
+ 1.112 2 3 cbr 500 ------- 2 1.0 3.1 50 50
- 1.112 2 3 cbr 500 ------- 2 1.0 3.1 50 50
+ 1.112 1 2 cbr 500 ------- 2 1.0 3.1 56 56
- 1.112 1 2 cbr 500 ------- 2 1.0 3.1 56 56
r 1.113333 2 3 cbr 500 ------- 2 1.0 3.1 40 40
r 1.114 1 2 cbr 500 ------- 2 1.0 3.1 51 51
+ 1.114 2 3 cbr 500 ------- 2 1.0 3.1 51 51
- 1.114 2 3 cbr 500 ------- 2 1.0 3.1 51 51
+ 1.114 1 2 cbr 500 ------- 2 1.0 3.1 57 57
- 1.114 1 2 cbr 500 ------- 2 1.0 3.1 57 57
r 1.115333 2 3 cbr 500 ------- 2 1.0 3.1 41 41
r 1.116 1 2 cbr 500 ------- 2 1.0 3.1 52 52
+ 1.116 2 3 cbr 500 ------- 2 1.0 3.1 52 52
- 1.116 2 3 cbr 500 ------- 2 1.0 3.1 52 52
+ 1.116 1 2 cbr 500 ------- 2 1.0 3.1 58 58
- 1.116 1 2 cbr 500 ------- 2 1.0 3.1 58 58
r 1.117333 2 3 cbr 500 ------- 2 1.0 3.1 42 42
r 1.118 1 2 cbr 500 ------- 2 1.0 3.1 53 53
+ 1.118 2 3 cbr 500 ------- 2 1.0 3.1 53 53
- 1.118 2 3 cbr 500 ------- 2 1.0 3.1 53 53
+ 1.118 1 2 cbr 500 ------- 2 1.0 3.1 59 59
- 1.118 1 2 cbr 500 ------- 2 1.0 3.1 59 59
r 1.119333 2 3 cbr 500 ------- 2 1.0 3.1 43 43
r 1.12 1 2 cbr 500 ------- 2 1.0 3.1 54 54
+ 1.12 2 3 cbr 500 ------- 2 1.0 3.1 54 54
- 1.12 2 3 cbr 500 ------- 2 1.0 3.1 54 54
+ 1.12 1 2 cbr 500 ------- 2 1.0 3.1 60 60
- 1.12 1 2 cbr 500 ------- 2 1.0 3.1 60 60
r 1.121333 2 3 cbr 500 ------- 2 1.0 3.1 44 44
r 1.122 1 2 cbr 500 ------- 2 1.0 3.1 55 55
+ 1.122 2 3 cbr 500 ------- 2 1.0 3.1 55 55
- 1.122 2 3 cbr 500 ------- 2 1.0 3.1 55 55
+ 1.122 1 2 cbr 500 ------- 2 1.0 3.1 61 61
- 1.122 1 2 cbr 500 ------- 2 1.0 3.1 61 61
r 1.123333 2 3 cbr 500 ------- 2 1.0 3.1 45 45
r 1.124 1 2 cbr 500 ------- 2 1.0 3.1 56 56
+ 1.124 2 3 cbr 500 ------- 2 1.0 3.1 56 56
- 1.124 2 3 cbr 500 ------- 2 1.0 3.1 56 56
+ 1.124 1 2 cbr 500 ------- 2 1.0 3.1 62 62
- 1.124 1 2 cbr 500 ------- 2 1.0 3.1 62 62
r 1.125333 2 3 cbr 500 ------- 2 1.0 3.1 46 46
r 1.126 1 2 cbr 500 ------- 2 1.0 3.1 57 57
+ 1.126 2 3 cbr 500 ------- 2 1.0 3.1 57 57
- 1.126 2 3 cbr 500 ------- 2 1.0 3.1 57 57
+ 1.126 1 2 cbr 500 ------- 2 1.0 3.1 63 63
- 1.126 1 2 cbr 500 ------- 2 1.0 3.1 63 63
r 1.127333 2 3 cbr 500 ------- 2 1.0 3.1 47 47
r 1.128 1 2 cbr 500 ------- 2 1.0 3.1 58 58
+ 1.128 2 3 cbr 500 ------- 2 1.0 3.1 58 58
- 1.128 2 3 cbr 500 ------- 2 1.0 3.1 58 58
+ 1.128 1 2 cbr 500 ------- 2 1.0 3.1 64 64
- 1.128 1 2 cbr 500 ------- 2 1.0 3.1 64 64
r 1.129333 2 3 cbr 500 ------- 2 1.0 3.1 48 48
r 1.13 1 2 cbr 500 ------- 2 1.0 3.1 59 59
+ 1.13 2 3 cbr 500 ------- 2 1.0 3.1 59 59
- 1.13 2 3 cbr 500 ------- 2 1.0 3.1 59 59
+ 1.13 1 2 cbr 500 ------- 2 1.0 3.1 65 65
- 1.13 1 2 cbr 500 ------- 2 1.0 3.1 65 65
r 1.131333 2 3 cbr 500 ------- 2 1.0 3.1 49 49
r 1.132 1 2 cbr 500 ------- 2 1.0 3.1 60 60
+ 1.132 2 3 cbr 500 ------- 2 1.0 3.1 60 60
- 1.132 2 3 cbr 500 ------- 2 1.0 3.1 60 60
+ 1.132 1 2 cbr 500 ------- 2 1.0 3.1 66 66
- 1.132 1 2 cbr 500 ------- 2 1.0 3.1 66 66
r 1.133333 2 3 cbr 500 ------- 2 1.0 3.1 50 50
r 1.134 1 2 cbr 500 ------- 2 1.0 3.1 61 61
+ 1.134 2 3 cbr 500 ------- 2 1.0 3.1 61 61
- 1.134 2 3 cbr 500 ------- 2 1.0 3.1 61 61
+ 1.134 1 2 cbr 500 ------- 2 1.0 3.1 67 67
- 1.134 1 2 cbr 500 ------- 2 1.0 3.1 67 67
r 1.135333 2 3 cbr 500 ------- 2 1.0 3.1 51 51
r 1.136 1 2 cbr 500 ------- 2 1.0 3.1 62 62
+ 1.136 2 3 cbr 500 ------- 2 1.0 3.1 62 62
- 1.136 2 3 cbr 500 ------- 2 1.0 3.1 62 62
+ 1.136 1 2 cbr 500 ------- 2 1.0 3.1 68 68
- 1.136 1 2 cbr 500 ------- 2 1.0 3.1 68 68
r 1.137333 2 3 cbr 500 ------- 2 1.0 3.1 52 52
r 1.138 1 2 cbr 500 ------- 2 1.0 3.1 63 63
+ 1.138 2 3 cbr 500 ------- 2 1.0 3.1 63 63
- 1.138 2 3 cbr 500 ------- 2 1.0 3.1 63 63
+ 1.138 1 2 cbr 500 ------- 2 1.0 3.1 69 69
- 1.138 1 2 cbr 500 ------- 2 1.0 3.1 69 69
r 1.139333 2 3 cbr 500 ------- 2 1.0 3.1 53 53
r 1.14 1 2 cbr 500 ------- 2 1.0 3.1 64 64
+ 1.14 2 3 cbr 500 ------- 2 1.0 3.1 64 64
- 1.14 2 3 cbr 500 ------- 2 1.0 3.1 64 64
+ 1.14 1 2 cbr 500 ------- 2 1.0 3.1 70 70
- 1.14 1 2 cbr 500 ------- 2 1.0 3.1 70 70
r 1.141333 2 3 cbr 500 ------- 2 1.0 3.1 54 54
r 1.142 1 2 cbr 500 ------- 2 1.0 3.1 65 65
+ 1.142 2 3 cbr 500 ------- 2 1.0 3.1 65 65
- 1.142 2 3 cbr 500 ------- 2 1.0 3.1 65 65
+ 1.142 1 2 cbr 500 ------- 2 1.0 3.1 71 71
- 1.142 1 2 cbr 500 ------- 2 1.0 3.1 71 71
r 1.143333 2 3 cbr 500 ------- 2 1.0 3.1 55 55
r 1.144 1 2 cbr 500 ------- 2 1.0 3.1 66 66
+ 1.144 2 3 cbr 500 ------- 2 1.0 3.1 66 66
- 1.144 2 3 cbr 500 ------- 2 1.0 3.1 66 66
+ 1.144 1 2 cbr 500 ------- 2 1.0 3.1 72 72
- 1.144 1 2 cbr 500 ------- 2 1.0 3.1 72 72
r 1.145333 2 3 cbr 500 ------- 2 1.0 3.1 56 56
r 1.146 1 2 cbr 500 ------- 2 1.0 3.1 67 67
+ 1.146 2 3 cbr 500 ------- 2 1.0 3.1 67 67
- 1.146 2 3 cbr 500 ------- 2 1.0 3.1 67 67
+ 1.146 1 2 cbr 500 ------- 2 1.0 3.1 73 73
- 1.146 1 2 cbr 500 ------- 2 1.0 3.1 73 73
r 1.147333 2 3 cbr 500 ------- 2 1.0 3.1 57 57
r 1.148 1 2 cbr 500 ------- 2 1.0 3.1 68 68
+ 1.148 2 3 cbr 500 ------- 2 1.0 3.1 68 68
- 1.148 2 3 cbr 500 ------- 2 1.0 3.1 68 68
+ 1.148 1 2 cbr 500 ------- 2 1.0 3.1 74 74
- 1.148 1 2 cbr 500 ------- 2 1.0 3.1 74 74
r 1.149333 2 3 cbr 500 ------- 2 1.0 3.1 58 58
r 1.15 1 2 cbr 500 ------- 2 1.0 3.1 69 69
+ 1.15 2 3 cbr 500 ------- 2 1.0 3.1 69 69
- 1.15 2 3 cbr 500 ------- 2 1.0 3.1 69 69
+ 1.15 1 2 cbr 500 ------- 2 1.0 3.1 75 75
- 1.15 1 2 cbr 500 ------- 2 1.0 3.1 75 75
r 1.151333 2 3 cbr 500 ------- 2 1.0 3.1 59 59
r 1.152 1 2 cbr 500 ------- 2 1.0 3.1 70 70
+ 1.152 2 3 cbr 500 ------- 2 1.0 3.1 70 70
- 1.152 2 3 cbr 500 ------- 2 1.0 3.1 70 70
+ 1.152 1 2 cbr 500 ------- 2 1.0 3.1 76 76
- 1.152 1 2 cbr 500 ------- 2 1.0 3.1 76 76
r 1.153333 2 3 cbr 500 ------- 2 1.0 3.1 60 60
r 1.154 1 2 cbr 500 ------- 2 1.0 3.1 71 71
+ 1.154 2 3 cbr 500 ------- 2 1.0 3.1 71 71
- 1.154 2 3 cbr 500 ------- 2 1.0 3.1 71 71
+ 1.154 1 2 cbr 500 ------- 2 1.0 3.1 77 77
- 1.154 1 2 cbr 500 ------- 2 1.0 3.1 77 77
r 1.155333 2 3 cbr 500 ------- 2 1.0 3.1 61 61
r 1.156 1 2 cbr 500 ------- 2 1.0 3.1 72 72
+ 1.156 2 3 cbr 500 ------- 2 1.0 3.1 72 72
- 1.156 2 3 cbr 500 ------- 2 1.0 3.1 72 72
+ 1.156 1 2 cbr 500 ------- 2 1.0 3.1 78 78
- 1.156 1 2 cbr 500 ------- 2 1.0 3.1 78 78
r 1.157333 2 3 cbr 500 ------- 2 1.0 3.1 62 62
r 1.158 1 2 cbr 500 ------- 2 1.0 3.1 73 73
+ 1.158 2 3 cbr 500 ------- 2 1.0 3.1 73 73
- 1.158 2 3 cbr 500 ------- 2 1.0 3.1 73 73
+ 1.158 1 2 cbr 500 ------- 2 1.0 3.1 79 79
- 1.158 1 2 cbr 500 ------- 2 1.0 3.1 79 79
r 1.159333 2 3 cbr 500 ------- 2 1.0 3.1 63 63
r 1.16 1 2 cbr 500 ------- 2 1.0 3.1 74 74
+ 1.16 2 3 cbr 500 ------- 2 1.0 3.1 74 74
- 1.16 2 3 cbr 500 ------- 2 1.0 3.1 74 74
+ 1.16 1 2 cbr 500 ------- 2 1.0 3.1 80 80
- 1.16 1 2 cbr 500 ------- 2 1.0 3.1 80 80
r 1.161333 2 3 cbr 500 ------- 2 1.0 3.1 64 64
r 1.162 1 2 cbr 500 ------- 2 1.0 3.1 75 75
+ 1.162 2 3 cbr 500 ------- 2 1.0 3.1 75 75
- 1.162 2 3 cbr 500 ------- 2 1.0 3.1 75 75
+ 1.162 1 2 cbr 500 ------- 2 1.0 3.1 81 81
- 1.162 1 2 cbr 500 ------- 2 1.0 3.1 81 81
r 1.163333 2 3 cbr 500 ------- 2 1.0 3.1 65 65
r 1.164 1 2 cbr 500 ------- 2 1.0 3.1 76 76
+ 1.164 2 3 cbr 500 ------- 2 1.0 3.1 76 76
- 1.164 2 3 cbr 500 ------- 2 1.0 3.1 76 76
+ 1.164 1 2 cbr 500 ------- 2 1.0 3.1 82 82
- 1.164 1 2 cbr 500 ------- 2 1.0 3.1 82 82
r 1.165333 2 3 cbr 500 ------- 2 1.0 3.1 66 66
r 1.166 1 2 cbr 500 ------- 2 1.0 3.1 77 77
+ 1.166 2 3 cbr 500 ------- 2 1.0 3.1 77 77
- 1.166 2 3 cbr 500 ------- 2 1.0 3.1 77 77
+ 1.166 1 2 cbr 500 ------- 2 1.0 3.1 83 83
- 1.166 1 2 cbr 500 ------- 2 1.0 3.1 83 83
r 1.167333 2 3 cbr 500 ------- 2 1.0 3.1 67 67
r 1.168 1 2 cbr 500 ------- 2 1.0 3.1 78 78
+ 1.168 2 3 cbr 500 ------- 2 1.0 3.1 78 78
- 1.168 2 3 cbr 500 ------- 2 1.0 3.1 78 78
+ 1.168 1 2 cbr 500 ------- 2 1.0 3.1 84 84
- 1.168 1 2 cbr 500 ------- 2 1.0 3.1 84 84
r 1.169333 2 3 cbr 500 ------- 2 1.0 3.1 68 68
r 1.17 1 2 cbr 500 ------- 2 1.0 3.1 79 79
+ 1.17 2 3 cbr 500 ------- 2 1.0 3.1 79 79
- 1.17 2 3 cbr 500 ------- 2 1.0 3.1 79 79
+ 1.17 1 2 cbr 500 ------- 2 1.0 3.1 85 85
- 1.17 1 2 cbr 500 ------- 2 1.0 3.1 85 85
r 1.171333 2 3 cbr 500 ------- 2 1.0 3.1 69 69
r 1.172 1 2 cbr 500 ------- 2 1.0 3.1 80 80
+ 1.172 2 3 cbr 500 ------- 2 1.0 3.1 80 80
- 1.172 2 3 cbr 500 ------- 2 1.0 3.1 80 80
+ 1.172 1 2 cbr 500 ------- 2 1.0 3.1 86 86
- 1.172 1 2 cbr 500 ------- 2 1.0 3.1 86 86
r 1.173333 2 3 cbr 500 ------- 2 1.0 3.1 70 70
r 1.174 1 2 cbr 500 ------- 2 1.0 3.1 81 81
+ 1.174 2 3 cbr 500 ------- 2 1.0 3.1 81 81
- 1.174 2 3 cbr 500 ------- 2 1.0 3.1 81 81
+ 1.174 1 2 cbr 500 ------- 2 1.0 3.1 87 87
- 1.174 1 2 cbr 500 ------- 2 1.0 3.1 87 87
r 1.175333 2 3 cbr 500 ------- 2 1.0 3.1 71 71
r 1.176 1 2 cbr 500 ------- 2 1.0 3.1 82 82
+ 1.176 2 3 cbr 500 ------- 2 1.0 3.1 82 82
- 1.176 2 3 cbr 500 ------- 2 1.0 3.1 82 82
+ 1.176 1 2 cbr 500 ------- 2 1.0 3.1 88 88
- 1.176 1 2 cbr 500 ------- 2 1.0 3.1 88 88
r 1.177333 2 3 cbr 500 ------- 2 1.0 3.1 72 72
r 1.178 1 2 cbr 500 ------- 2 1.0 3.1 83 83
+ 1.178 2 3 cbr 500 ------- 2 1.0 3.1 83 83
- 1.178 2 3 cbr 500 ------- 2 1.0 3.1 83 83
+ 1.178 1 2 cbr 500 ------- 2 1.0 3.1 89 89
- 1.178 1 2 cbr 500 ------- 2 1.0 3.1 89 89
r 1.179333 2 3 cbr 500 ------- 2 1.0 3.1 73 73
r 1.18 1 2 cbr 500 ------- 2 1.0 3.1 84 84
+ 1.18 2 3 cbr 500 ------- 2 1.0 3.1 84 84
- 1.18 2 3 cbr 500 ------- 2 1.0 3.1 84 84
+ 1.18 1 2 cbr 500 ------- 2 1.0 3.1 90 90
- 1.18 1 2 cbr 500 ------- 2 1.0 3.1 90 90
r 1.181333 2 3 cbr 500 ------- 2 1.0 3.1 74 74
r 1.182 1 2 cbr 500 ------- 2 1.0 3.1 85 85
+ 1.182 2 3 cbr 500 ------- 2 1.0 3.1 85 85
- 1.182 2 3 cbr 500 ------- 2 1.0 3.1 85 85
+ 1.182 1 2 cbr 500 ------- 2 1.0 3.1 91 91
- 1.182 1 2 cbr 500 ------- 2 1.0 3.1 91 91
r 1.183333 2 3 cbr 500 ------- 2 1.0 3.1 75 75
r 1.184 1 2 cbr 500 ------- 2 1.0 3.1 86 86
+ 1.184 2 3 cbr 500 ------- 2 1.0 3.1 86 86
- 1.184 2 3 cbr 500 ------- 2 1.0 3.1 86 86
+ 1.184 1 2 cbr 500 ------- 2 1.0 3.1 92 92
- 1.184 1 2 cbr 500 ------- 2 1.0 3.1 92 92
r 1.185333 2 3 cbr 500 ------- 2 1.0 3.1 76 76
r 1.186 1 2 cbr 500 ------- 2 1.0 3.1 87 87
+ 1.186 2 3 cbr 500 ------- 2 1.0 3.1 87 87
- 1.186 2 3 cbr 500 ------- 2 1.0 3.1 87 87
+ 1.186 1 2 cbr 500 ------- 2 1.0 3.1 93 93
- 1.186 1 2 cbr 500 ------- 2 1.0 3.1 93 93
r 1.187333 2 3 cbr 500 ------- 2 1.0 3.1 77 77
r 1.188 1 2 cbr 500 ------- 2 1.0 3.1 88 88
+ 1.188 2 3 cbr 500 ------- 2 1.0 3.1 88 88
- 1.188 2 3 cbr 500 ------- 2 1.0 3.1 88 88
+ 1.188 1 2 cbr 500 ------- 2 1.0 3.1 94 94
- 1.188 1 2 cbr 500 ------- 2 1.0 3.1 94 94
r 1.189333 2 3 cbr 500 ------- 2 1.0 3.1 78 78
r 1.19 1 2 cbr 500 ------- 2 1.0 3.1 89 89
+ 1.19 2 3 cbr 500 ------- 2 1.0 3.1 89 89
- 1.19 2 3 cbr 500 ------- 2 1.0 3.1 89 89
+ 1.19 1 2 cbr 500 ------- 2 1.0 3.1 95 95
- 1.19 1 2 cbr 500 ------- 2 1.0 3.1 95 95
r 1.191333 2 3 cbr 500 ------- 2 1.0 3.1 79 79
r 1.192 1 2 cbr 500 ------- 2 1.0 3.1 90 90
+ 1.192 2 3 cbr 500 ------- 2 1.0 3.1 90 90
- 1.192 2 3 cbr 500 ------- 2 1.0 3.1 90 90
+ 1.192 1 2 cbr 500 ------- 2 1.0 3.1 96 96
- 1.192 1 2 cbr 500 ------- 2 1.0 3.1 96 96
r 1.193333 2 3 cbr 500 ------- 2 1.0 3.1 80 80
r 1.194 1 2 cbr 500 ------- 2 1.0 3.1 91 91
+ 1.194 2 3 cbr 500 ------- 2 1.0 3.1 91 91
- 1.194 2 3 cbr 500 ------- 2 1.0 3.1 91 91
+ 1.194 1 2 cbr 500 ------- 2 1.0 3.1 97 97
- 1.194 1 2 cbr 500 ------- 2 1.0 3.1 97 97
r 1.195333 2 3 cbr 500 ------- 2 1.0 3.1 81 81
r 1.196 1 2 cbr 500 ------- 2 1.0 3.1 92 92
+ 1.196 2 3 cbr 500 ------- 2 1.0 3.1 92 92
- 1.196 2 3 cbr 500 ------- 2 1.0 3.1 92 92
+ 1.196 1 2 cbr 500 ------- 2 1.0 3.1 98 98
- 1.196 1 2 cbr 500 ------- 2 1.0 3.1 98 98
r 1.197333 2 3 cbr 500 ------- 2 1.0 3.1 82 82
r 1.198 1 2 cbr 500 ------- 2 1.0 3.1 93 93
+ 1.198 2 3 cbr 500 ------- 2 1.0 3.1 93 93
- 1.198 2 3 cbr 500 ------- 2 1.0 3.1 93 93
+ 1.198 1 2 cbr 500 ------- 2 1.0 3.1 99 99
- 1.198 1 2 cbr 500 ------- 2 1.0 3.1 99 99
r 1.199333 2 3 cbr 500 ------- 2 1.0 3.1 83 83
r 1.2 1 2 cbr 500 ------- 2 1.0 3.1 94 94
+ 1.2 2 3 cbr 500 ------- 2 1.0 3.1 94 94
- 1.2 2 3 cbr 500 ------- 2 1.0 3.1 94 94
+ 1.2 1 2 cbr 500 ------- 2 1.0 3.1 100 100
- 1.2 1 2 cbr 500 ------- 2 1.0 3.1 100 100
r 1.201333 2 3 cbr 500 ------- 2 1.0 3.1 84 84
r 1.202 1 2 cbr 500 ------- 2 1.0 3.1 95 95
+ 1.202 2 3 cbr 500 ------- 2 1.0 3.1 95 95
- 1.202 2 3 cbr 500 ------- 2 1.0 3.1 95 95
+ 1.202 1 2 cbr 500 ------- 2 1.0 3.1 101 101
- 1.202 1 2 cbr 500 ------- 2 1.0 3.1 101 101
r 1.203333 2 3 cbr 500 ------- 2 1.0 3.1 85 85
r 1.204 1 2 cbr 500 ------- 2 1.0 3.1 96 96
+ 1.204 2 3 cbr 500 ------- 2 1.0 3.1 96 96
- 1.204 2 3 cbr 500 ------- 2 1.0 3.1 96 96
+ 1.204 1 2 cbr 500 ------- 2 1.0 3.1 102 102
- 1.204 1 2 cbr 500 ------- 2 1.0 3.1 102 102
r 1.205333 2 3 cbr 500 ------- 2 1.0 3.1 86 86
r 1.206 1 2 cbr 500 ------- 2 1.0 3.1 97 97
+ 1.206 2 3 cbr 500 ------- 2 1.0 3.1 97 97
- 1.206 2 3 cbr 500 ------- 2 1.0 3.1 97 97
+ 1.206 1 2 cbr 500 ------- 2 1.0 3.1 103 103
- 1.206 1 2 cbr 500 ------- 2 1.0 3.1 103 103
r 1.207333 2 3 cbr 500 ------- 2 1.0 3.1 87 87
r 1.208 1 2 cbr 500 ------- 2 1.0 3.1 98 98
+ 1.208 2 3 cbr 500 ------- 2 1.0 3.1 98 98
- 1.208 2 3 cbr 500 ------- 2 1.0 3.1 98 98
+ 1.208 1 2 cbr 500 ------- 2 1.0 3.1 104 104
- 1.208 1 2 cbr 500 ------- 2 1.0 3.1 104 104
r 1.209333 2 3 cbr 500 ------- 2 1.0 3.1 88 88
r 1.21 1 2 cbr 500 ------- 2 1.0 3.1 99 99
+ 1.21 2 3 cbr 500 ------- 2 1.0 3.1 99 99
- 1.21 2 3 cbr 500 ------- 2 1.0 3.1 99 99
+ 1.21 1 2 cbr 500 ------- 2 1.0 3.1 105 105
- 1.21 1 2 cbr 500 ------- 2 1.0 3.1 105 105
r 1.211333 2 3 cbr 500 ------- 2 1.0 3.1 89 89
r 1.212 1 2 cbr 500 ------- 2 1.0 3.1 100 100
+ 1.212 2 3 cbr 500 ------- 2 1.0 3.1 100 100
- 1.212 2 3 cbr 500 ------- 2 1.0 3.1 100 100
+ 1.212 1 2 cbr 500 ------- 2 1.0 3.1 106 106
- 1.212 1 2 cbr 500 ------- 2 1.0 3.1 106 106
r 1.213333 2 3 cbr 500 ------- 2 1.0 3.1 90 90
r 1.214 1 2 cbr 500 ------- 2 1.0 3.1 101 101
+ 1.214 2 3 cbr 500 ------- 2 1.0 3.1 101 101
- 1.214 2 3 cbr 500 ------- 2 1.0 3.1 101 101
+ 1.214 1 2 cbr 500 ------- 2 1.0 3.1 107 107
- 1.214 1 2 cbr 500 ------- 2 1.0 3.1 107 107
r 1.215333 2 3 cbr 500 ------- 2 1.0 3.1 91 91
r 1.216 1 2 cbr 500 ------- 2 1.0 3.1 102 102
+ 1.216 2 3 cbr 500 ------- 2 1.0 3.1 102 102
- 1.216 2 3 cbr 500 ------- 2 1.0 3.1 102 102
+ 1.216 1 2 cbr 500 ------- 2 1.0 3.1 108 108
- 1.216 1 2 cbr 500 ------- 2 1.0 3.1 108 108
r 1.217333 2 3 cbr 500 ------- 2 1.0 3.1 92 92
r 1.218 1 2 cbr 500 ------- 2 1.0 3.1 103 103
+ 1.218 2 3 cbr 500 ------- 2 1.0 3.1 103 103
- 1.218 2 3 cbr 500 ------- 2 1.0 3.1 103 103
+ 1.218 1 2 cbr 500 ------- 2 1.0 3.1 109 109
- 1.218 1 2 cbr 500 ------- 2 1.0 3.1 109 109
r 1.219333 2 3 cbr 500 ------- 2 1.0 3.1 93 93
r 1.22 1 2 cbr 500 ------- 2 1.0 3.1 104 104
+ 1.22 2 3 cbr 500 ------- 2 1.0 3.1 104 104
- 1.22 2 3 cbr 500 ------- 2 1.0 3.1 104 104
+ 1.22 1 2 cbr 500 ------- 2 1.0 3.1 110 110
- 1.22 1 2 cbr 500 ------- 2 1.0 3.1 110 110
r 1.221333 2 3 cbr 500 ------- 2 1.0 3.1 94 94
r 1.222 1 2 cbr 500 ------- 2 1.0 3.1 105 105
+ 1.222 2 3 cbr 500 ------- 2 1.0 3.1 105 105
- 1.222 2 3 cbr 500 ------- 2 1.0 3.1 105 105
+ 1.222 1 2 cbr 500 ------- 2 1.0 3.1 111 111
- 1.222 1 2 cbr 500 ------- 2 1.0 3.1 111 111
r 1.223333 2 3 cbr 500 ------- 2 1.0 3.1 95 95
r 1.224 1 2 cbr 500 ------- 2 1.0 3.1 106 106
+ 1.224 2 3 cbr 500 ------- 2 1.0 3.1 106 106
- 1.224 2 3 cbr 500 ------- 2 1.0 3.1 106 106
+ 1.224 1 2 cbr 500 ------- 2 1.0 3.1 112 112
- 1.224 1 2 cbr 500 ------- 2 1.0 3.1 112 112
r 1.225333 2 3 cbr 500 ------- 2 1.0 3.1 96 96
r 1.226 1 2 cbr 500 ------- 2 1.0 3.1 107 107
+ 1.226 2 3 cbr 500 ------- 2 1.0 3.1 107 107
- 1.226 2 3 cbr 500 ------- 2 1.0 3.1 107 107
+ 1.226 1 2 cbr 500 ------- 2 1.0 3.1 113 113
- 1.226 1 2 cbr 500 ------- 2 1.0 3.1 113 113
r 1.227333 2 3 cbr 500 ------- 2 1.0 3.1 97 97
r 1.228 1 2 cbr 500 ------- 2 1.0 3.1 108 108
+ 1.228 2 3 cbr 500 ------- 2 1.0 3.1 108 108
- 1.228 2 3 cbr 500 ------- 2 1.0 3.1 108 108
+ 1.228 1 2 cbr 500 ------- 2 1.0 3.1 114 114
- 1.228 1 2 cbr 500 ------- 2 1.0 3.1 114 114
r 1.229333 2 3 cbr 500 ------- 2 1.0 3.1 98 98
r 1.23 1 2 cbr 500 ------- 2 1.0 3.1 109 109
+ 1.23 2 3 cbr 500 ------- 2 1.0 3.1 109 109
- 1.23 2 3 cbr 500 ------- 2 1.0 3.1 109 109
+ 1.23 1 2 cbr 500 ------- 2 1.0 3.1 115 115
- 1.23 1 2 cbr 500 ------- 2 1.0 3.1 115 115
r 1.231333 2 3 cbr 500 ------- 2 1.0 3.1 99 99
r 1.232 1 2 cbr 500 ------- 2 1.0 3.1 110 110
+ 1.232 2 3 cbr 500 ------- 2 1.0 3.1 110 110
- 1.232 2 3 cbr 500 ------- 2 1.0 3.1 110 110
+ 1.232 1 2 cbr 500 ------- 2 1.0 3.1 116 116
- 1.232 1 2 cbr 500 ------- 2 1.0 3.1 116 116
r 1.233333 2 3 cbr 500 ------- 2 1.0 3.1 100 100
r 1.234 1 2 cbr 500 ------- 2 1.0 3.1 111 111
+ 1.234 2 3 cbr 500 ------- 2 1.0 3.1 111 111
- 1.234 2 3 cbr 500 ------- 2 1.0 3.1 111 111
+ 1.234 1 2 cbr 500 ------- 2 1.0 3.1 117 117
- 1.234 1 2 cbr 500 ------- 2 1.0 3.1 117 117
r 1.235333 2 3 cbr 500 ------- 2 1.0 3.1 101 101
r 1.236 1 2 cbr 500 ------- 2 1.0 3.1 112 112
+ 1.236 2 3 cbr 500 ------- 2 1.0 3.1 112 112
- 1.236 2 3 cbr 500 ------- 2 1.0 3.1 112 112