+ 0.5 2 1 cbr 500 ------- 0 2.0 1.0 0 0
- 0.5 2 1 cbr 500 ------- 0 2.0 1.0 0 0
+ 0.5 0 1 tcp 40 ------- 0 0.0 1.1 0 1
- 0.5 0 1 tcp 40 ------- 0 0.0 1.1 0 1
+ 0.505 2 1 cbr 500 ------- 0 2.0 1.0 1 2
- 0.505714 2 1 cbr 500 ------- 0 2.0 1.0 1 2
+ 0.51 2 1 cbr 500 ------- 0 2.0 1.0 2 3
r 0.51016 0 1 tcp 40 ------- 0 0.0 1.1 0 1
+ 0.51016 1 0 ack 40 ------- 0 1.1 0.0 0 4
- 0.51016 1 0 ack 40 ------- 0 1.1 0.0 0 4
- 0.511429 2 1 cbr 500 ------- 0 2.0 1.0 2 3
+ 0.515 2 1 cbr 500 ------- 0 2.0 1.0 3 5
- 0.517143 2 1 cbr 500 ------- 0 2.0 1.0 3 5
+ 0.52 2 1 cbr 500 ------- 0 2.0 1.0 4 6
r 0.52032 1 0 ack 40 ------- 0 1.1 0.0 0 4
+ 0.52032 0 1 tcp 1040 ------- 0 0.0 1.1 1 7
- 0.52032 0 1 tcp 1040 ------- 0 0.0 1.1 1 7
+ 0.52032 0 1 tcp 1040 ------- 0 0.0 1.1 2 8
- 0.522857 2 1 cbr 500 ------- 0 2.0 1.0 4 6
- 0.52448 0 1 tcp 1040 ------- 0 0.0 1.1 2 8
+ 0.525 2 1 cbr 500 ------- 0 2.0 1.0 5 9
r 0.525714 2 1 cbr 500 ------- 0 2.0 1.0 0 0
- 0.528571 2 1 cbr 500 ------- 0 2.0 1.0 5 9
+ 0.53 2 1 cbr 500 ------- 0 2.0 1.0 6 10
r 0.531429 2 1 cbr 500 ------- 0 2.0 1.0 1 2
- 0.534286 2 1 cbr 500 ------- 0 2.0 1.0 6 10
r 0.53448 0 1 tcp 1040 ------- 0 0.0 1.1 1 7
+ 0.53448 1 0 ack 40 ------- 0 1.1 0.0 1 11
- 0.53448 1 0 ack 40 ------- 0 1.1 0.0 1 11
+ 0.535 2 1 cbr 500 ------- 0 2.0 1.0 7 12
r 0.537143 2 1 cbr 500 ------- 0 2.0 1.0 2 3
r 0.53864 0 1 tcp 1040 ------- 0 0.0 1.1 2 8
+ 0.53864 1 0 ack 40 ------- 0 1.1 0.0 2 13
- 0.53864 1 0 ack 40 ------- 0 1.1 0.0 2 13
- 0.54 2 1 cbr 500 ------- 0 2.0 1.0 7 12
+ 0.54 2 1 cbr 500 ------- 0 2.0 1.0 8 14
r 0.542857 2 1 cbr 500 ------- 0 2.0 1.0 3 5
r 0.54464 1 0 ack 40 ------- 0 1.1 0.0 1 11
+ 0.54464 0 1 tcp 1040 ------- 0 0.0 1.1 3 15
- 0.54464 0 1 tcp 1040 ------- 0 0.0 1.1 3 15
+ 0.54464 0 1 tcp 1040 ------- 0 0.0 1.1 4 16
+ 0.545 2 1 cbr 500 ------- 0 2.0 1.0 9 17
- 0.545714 2 1 cbr 500 ------- 0 2.0 1.0 8 14
r 0.548571 2 1 cbr 500 ------- 0 2.0 1.0 4 6
r 0.5488 1 0 ack 40 ------- 0 1.1 0.0 2 13
+ 0.5488 0 1 tcp 1040 ------- 0 0.0 1.1 5 18
+ 0.5488 0 1 tcp 1040 ------- 0 0.0 1.1 6 19
- 0.5488 0 1 tcp 1040 ------- 0 0.0 1.1 4 16
+ 0.55 2 1 cbr 500 ------- 0 2.0 1.0 10 20
- 0.551429 2 1 cbr 500 ------- 0 2.0 1.0 9 17
- 0.55296 0 1 tcp 1040 ------- 0 0.0 1.1 5 18
r 0.554286 2 1 cbr 500 ------- 0 2.0 1.0 5 9
+ 0.555 2 1 cbr 500 ------- 0 2.0 1.0 11 21
- 0.55712 0 1 tcp 1040 ------- 0 0.0 1.1 6 19
- 0.557143 2 1 cbr 500 ------- 0 2.0 1.0 10 20
r 0.5588 0 1 tcp 1040 ------- 0 0.0 1.1 3 15
+ 0.5588 1 0 ack 40 ------- 0 1.1 0.0 3 22
- 0.5588 1 0 ack 40 ------- 0 1.1 0.0 3 22
r 0.56 2 1 cbr 500 ------- 0 2.0 1.0 6 10
+ 0.56 2 1 cbr 500 ------- 0 2.0 1.0 12 23
- 0.562857 2 1 cbr 500 ------- 0 2.0 1.0 11 21
r 0.56296 0 1 tcp 1040 ------- 0 0.0 1.1 4 16
+ 0.56296 1 0 ack 40 ------- 0 1.1 0.0 4 24
- 0.56296 1 0 ack 40 ------- 0 1.1 0.0 4 24
+ 0.565 2 1 cbr 500 ------- 0 2.0 1.0 13 25
r 0.565714 2 1 cbr 500 ------- 0 2.0 1.0 7 12
r 0.56712 0 1 tcp 1040 ------- 0 0.0 1.1 5 18
+ 0.56712 1 0 ack 40 ------- 0 1.1 0.0 5 26
- 0.56712 1 0 ack 40 ------- 0 1.1 0.0 5 26
- 0.568571 2 1 cbr 500 ------- 0 2.0 1.0 12 23
r 0.56896 1 0 ack 40 ------- 0 1.1 0.0 3 22
+ 0.56896 0 1 tcp 1040 ------- 0 0.0 1.1 7 27
- 0.56896 0 1 tcp 1040 ------- 0 0.0 1.1 7 27
+ 0.56896 0 1 tcp 1040 ------- 0 0.0 1.1 8 28
+ 0.57 2 1 cbr 500 ------- 0 2.0 1.0 14 29
r 0.57128 0 1 tcp 1040 ------- 0 0.0 1.1 6 19
+ 0.57128 1 0 ack 40 ------- 0 1.1 0.0 6 30
- 0.57128 1 0 ack 40 ------- 0 1.1 0.0 6 30
r 0.571429 2 1 cbr 500 ------- 0 2.0 1.0 8 14
r 0.57312 1 0 ack 40 ------- 0 1.1 0.0 4 24
+ 0.57312 0 1 tcp 1040 ------- 0 0.0 1.1 9 31
+ 0.57312 0 1 tcp 1040 ------- 0 0.0 1.1 10 32
- 0.57312 0 1 tcp 1040 ------- 0 0.0 1.1 8 28
- 0.574286 2 1 cbr 500 ------- 0 2.0 1.0 13 25
+ 0.575 2 1 cbr 500 ------- 0 2.0 1.0 15 33
r 0.577143 2 1 cbr 500 ------- 0 2.0 1.0 9 17
r 0.57728 1 0 ack 40 ------- 0 1.1 0.0 5 26
+ 0.57728 0 1 tcp 1040 ------- 0 0.0 1.1 11 34
+ 0.57728 0 1 tcp 1040 ------- 0 0.0 1.1 12 35
- 0.57728 0 1 tcp 1040 ------- 0 0.0 1.1 9 31
- 0.58 2 1 cbr 500 ------- 0 2.0 1.0 14 29
+ 0.58 2 1 cbr 500 ------- 0 2.0 1.0 16 36
r 0.58144 1 0 ack 40 ------- 0 1.1 0.0 6 30
+ 0.58144 0 1 tcp 1040 ------- 0 0.0 1.1 13 37
+ 0.58144 0 1 tcp 1040 ------- 0 0.0 1.1 14 38
- 0.58144 0 1 tcp 1040 ------- 0 0.0 1.1 10 32
r 0.582857 2 1 cbr 500 ------- 0 2.0 1.0 10 20
r 0.58312 0 1 tcp 1040 ------- 0 0.0 1.1 7 27
+ 0.58312 1 0 ack 40 ------- 0 1.1 0.0 7 39
- 0.58312 1 0 ack 40 ------- 0 1.1 0.0 7 39
+ 0.585 2 1 cbr 500 ------- 0 2.0 1.0 17 40
- 0.5856 0 1 tcp 1040 ------- 0 0.0 1.1 11 34
- 0.585714 2 1 cbr 500 ------- 0 2.0 1.0 15 33
r 0.58728 0 1 tcp 1040 ------- 0 0.0 1.1 8 28
+ 0.58728 1 0 ack 40 ------- 0 1.1 0.0 8 41
- 0.58728 1 0 ack 40 ------- 0 1.1 0.0 8 41
r 0.588571 2 1 cbr 500 ------- 0 2.0 1.0 11 21
- 0.58976 0 1 tcp 1040 ------- 0 0.0 1.1 12 35
+ 0.59 2 1 cbr 500 ------- 0 2.0 1.0 18 42
- 0.591429 2 1 cbr 500 ------- 0 2.0 1.0 16 36
r 0.59144 0 1 tcp 1040 ------- 0 0.0 1.1 9 31
+ 0.59144 1 0 ack 40 ------- 0 1.1 0.0 9 43
- 0.59144 1 0 ack 40 ------- 0 1.1 0.0 9 43
r 0.59328 1 0 ack 40 ------- 0 1.1 0.0 7 39
+ 0.59328 0 1 tcp 1040 ------- 0 0.0 1.1 15 44
+ 0.59328 0 1 tcp 1040 ------- 0 0.0 1.1 16 45
- 0.59392 0 1 tcp 1040 ------- 0 0.0 1.1 13 37
r 0.594286 2 1 cbr 500 ------- 0 2.0 1.0 12 23
+ 0.595 2 1 cbr 500 ------- 0 2.0 1.0 19 46
r 0.5956 0 1 tcp 1040 ------- 0 0.0 1.1 10 32
+ 0.5956 1 0 ack 40 ------- 0 1.1 0.0 10 47
- 0.5956 1 0 ack 40 ------- 0 1.1 0.0 10 47
- 0.597143 2 1 cbr 500 ------- 0 2.0 1.0 17 40
r 0.59744 1 0 ack 40 ------- 0 1.1 0.0 8 41
+ 0.59744 0 1 tcp 1040 ------- 0 0.0 1.1 17 48
+ 0.59744 0 1 tcp 1040 ------- 0 0.0 1.1 18 49
- 0.59808 0 1 tcp 1040 ------- 0 0.0 1.1 14 38
r 0.59976 0 1 tcp 1040 ------- 0 0.0 1.1 11 34
+ 0.59976 1 0 ack 40 ------- 0 1.1 0.0 11 50
- 0.59976 1 0 ack 40 ------- 0 1.1 0.0 11 50
r 0.6 2 1 cbr 500 ------- 0 2.0 1.0 13 25
+ 0.6 2 1 cbr 500 ------- 0 2.0 1.0 20 51
r 0.6016 1 0 ack 40 ------- 0 1.1 0.0 9 43
+ 0.6016 0 1 tcp 1040 ------- 0 0.0 1.1 19 52
+ 0.6016 0 1 tcp 1040 ------- 0 0.0 1.1 20 53
- 0.60224 0 1 tcp 1040 ------- 0 0.0 1.1 15 44
- 0.602857 2 1 cbr 500 ------- 0 2.0 1.0 18 42
r 0.60392 0 1 tcp 1040 ------- 0 0.0 1.1 12 35
+ 0.60392 1 0 ack 40 ------- 0 1.1 0.0 12 54
- 0.60392 1 0 ack 40 ------- 0 1.1 0.0 12 54
+ 0.605 2 1 cbr 500 ------- 0 2.0 1.0 21 55
r 0.605714 2 1 cbr 500 ------- 0 2.0 1.0 14 29
r 0.60576 1 0 ack 40 ------- 0 1.1 0.0 10 47
+ 0.60576 0 1 tcp 1040 ------- 0 0.0 1.1 21 56
+ 0.60576 0 1 tcp 1040 ------- 0 0.0 1.1 22 57
- 0.6064 0 1 tcp 1040 ------- 0 0.0 1.1 16 45
r 0.60808 0 1 tcp 1040 ------- 0 0.0 1.1 13 37
+ 0.60808 1 0 ack 40 ------- 0 1.1 0.0 13 58
- 0.60808 1 0 ack 40 ------- 0 1.1 0.0 13 58
- 0.608571 2 1 cbr 500 ------- 0 2.0 1.0 19 46
r 0.60992 1 0 ack 40 ------- 0 1.1 0.0 11 50
+ 0.60992 0 1 tcp 1040 ------- 0 0.0 1.1 23 59
+ 0.60992 0 1 tcp 1040 ------- 0 0.0 1.1 24 60
+ 0.61 2 1 cbr 500 ------- 0 2.0 1.0 22 61
- 0.61056 0 1 tcp 1040 ------- 0 0.0 1.1 17 48
r 0.611429 2 1 cbr 500 ------- 0 2.0 1.0 15 33
r 0.61224 0 1 tcp 1040 ------- 0 0.0 1.1 14 38
+ 0.61224 1 0 ack 40 ------- 0 1.1 0.0 14 62
- 0.61224 1 0 ack 40 ------- 0 1.1 0.0 14 62
r 0.61408 1 0 ack 40 ------- 0 1.1 0.0 12 54
+ 0.61408 0 1 tcp 1040 ------- 0 0.0 1.1 25 63
+ 0.61408 0 1 tcp 1040 ------- 0 0.0 1.1 26 64
- 0.614286 2 1 cbr 500 ------- 0 2.0 1.0 20 51
- 0.61472 0 1 tcp 1040 ------- 0 0.0 1.1 18 49
+ 0.615 2 1 cbr 500 ------- 0 2.0 1.0 23 65
r 0.6164 0 1 tcp 1040 ------- 0 0.0 1.1 15 44
+ 0.6164 1 0 ack 40 ------- 0 1.1 0.0 15 66
- 0.6164 1 0 ack 40 ------- 0 1.1 0.0 15 66
r 0.617143 2 1 cbr 500 ------- 0 2.0 1.0 16 36
r 0.61824 1 0 ack 40 ------- 0 1.1 0.0 13 58
+ 0.61824 0 1 tcp 1040 ------- 0 0.0 1.1 27 67
+ 0.61824 0 1 tcp 1040 ------- 0 0.0 1.1 28 68
d 0.61824 0 1 tcp 1040 ------- 0 0.0 1.1 28 68
- 0.61888 0 1 tcp 1040 ------- 0 0.0 1.1 19 52
- 0.62 2 1 cbr 500 ------- 0 2.0 1.0 21 55
+ 0.62 2 1 cbr 500 ------- 0 2.0 1.0 24 69
r 0.62056 0 1 tcp 1040 ------- 0 0.0 1.1 16 45
+ 0.62056 1 0 ack 40 ------- 0 1.1 0.0 16 70
- 0.62056 1 0 ack 40 ------- 0 1.1 0.0 16 70
r 0.6224 1 0 ack 40 ------- 0 1.1 0.0 14 62
+ 0.6224 0 1 tcp 1040 ------- 0 0.0 1.1 29 71
+ 0.6224 0 1 tcp 1040 ------- 0 0.0 1.1 30 72
d 0.6224 0 1 tcp 1040 ------- 0 0.0 1.1 30 72
r 0.622857 2 1 cbr 500 ------- 0 2.0 1.0 17 40
- 0.62304 0 1 tcp 1040 ------- 0 0.0 1.1 20 53
r 0.62472 0 1 tcp 1040 ------- 0 0.0 1.1 17 48
+ 0.62472 1 0 ack 40 ------- 0 1.1 0.0 17 73
- 0.62472 1 0 ack 40 ------- 0 1.1 0.0 17 73
+ 0.625 2 1 cbr 500 ------- 0 2.0 1.0 25 74
- 0.625714 2 1 cbr 500 ------- 0 2.0 1.0 22 61
r 0.62656 1 0 ack 40 ------- 0 1.1 0.0 15 66
+ 0.62656 0 1 tcp 1040 ------- 0 0.0 1.1 31 75
+ 0.62656 0 1 tcp 1040 ------- 0 0.0 1.1 32 76
d 0.62656 0 1 tcp 1040 ------- 0 0.0 1.1 32 76
- 0.6272 0 1 tcp 1040 ------- 0 0.0 1.1 21 56
r 0.628571 2 1 cbr 500 ------- 0 2.0 1.0 18 42
r 0.62888 0 1 tcp 1040 ------- 0 0.0 1.1 18 49
+ 0.62888 1 0 ack 40 ------- 0 1.1 0.0 18 77
- 0.62888 1 0 ack 40 ------- 0 1.1 0.0 18 77
+ 0.63 2 1 cbr 500 ------- 0 2.0 1.0 26 78
r 0.63072 1 0 ack 40 ------- 0 1.1 0.0 16 70
+ 0.63072 0 1 tcp 1040 ------- 0 0.0 1.1 33 79
+ 0.63072 0 1 tcp 1040 ------- 0 0.0 1.1 34 80
d 0.63072 0 1 tcp 1040 ------- 0 0.0 1.1 34 80
- 0.63136 0 1 tcp 1040 ------- 0 0.0 1.1 22 57
- 0.631429 2 1 cbr 500 ------- 0 2.0 1.0 23 65
r 0.63304 0 1 tcp 1040 ------- 0 0.0 1.1 19 52
+ 0.63304 1 0 ack 40 ------- 0 1.1 0.0 19 81
- 0.63304 1 0 ack 40 ------- 0 1.1 0.0 19 81
r 0.634286 2 1 cbr 500 ------- 0 2.0 1.0 19 46
r 0.63488 1 0 ack 40 ------- 0 1.1 0.0 17 73
+ 0.63488 0 1 tcp 1040 ------- 0 0.0 1.1 35 82
+ 0.63488 0 1 tcp 1040 ------- 0 0.0 1.1 36 83
d 0.63488 0 1 tcp 1040 ------- 0 0.0 1.1 36 83
+ 0.635 2 1 cbr 500 ------- 0 2.0 1.0 27 84
- 0.63552 0 1 tcp 1040 ------- 0 0.0 1.1 23 59
- 0.637143 2 1 cbr 500 ------- 0 2.0 1.0 24 69
r 0.6372 0 1 tcp 1040 ------- 0 0.0 1.1 20 53
+ 0.6372 1 0 ack 40 ------- 0 1.1 0.0 20 85
- 0.6372 1 0 ack 40 ------- 0 1.1 0.0 20 85
r 0.63904 1 0 ack 40 ------- 0 1.1 0.0 18 77
+ 0.63904 0 1 tcp 1040 ------- 0 0.0 1.1 37 86
+ 0.63904 0 1 tcp 1040 ------- 0 0.0 1.1 38 87
d 0.63904 0 1 tcp 1040 ------- 0 0.0 1.1 38 87
- 0.63968 0 1 tcp 1040 ------- 0 0.0 1.1 24 60
r 0.64 2 1 cbr 500 ------- 0 2.0 1.0 20 51
+ 0.64 2 1 cbr 500 ------- 0 2.0 1.0 28 88
r 0.64136 0 1 tcp 1040 ------- 0 0.0 1.1 21 56
+ 0.64136 1 0 ack 40 ------- 0 1.1 0.0 21 89
- 0.64136 1 0 ack 40 ------- 0 1.1 0.0 21 89
- 0.642857 2 1 cbr 500 ------- 0 2.0 1.0 25 74
r 0.6432 1 0 ack 40 ------- 0 1.1 0.0 19 81
+ 0.6432 0 1 tcp 1040 ------- 0 0.0 1.1 39 90
- 0.64384 0 1 tcp 1040 ------- 0 0.0 1.1 25 63
+ 0.645 2 1 cbr 500 ------- 0 2.0 1.0 29 91
r 0.64552 0 1 tcp 1040 ------- 0 0.0 1.1 22 57
+ 0.64552 1 0 ack 40 ------- 0 1.1 0.0 22 92
- 0.64552 1 0 ack 40 ------- 0 1.1 0.0 22 92
r 0.645714 2 1 cbr 500 ------- 0 2.0 1.0 21 55
r 0.64736 1 0 ack 40 ------- 0 1.1 0.0 20 85
+ 0.64736 0 1 tcp 1040 ------- 0 0.0 1.1 40 93
- 0.648 0 1 tcp 1040 ------- 0 0.0 1.1 26 64
- 0.648571 2 1 cbr 500 ------- 0 2.0 1.0 26 78
r 0.64968 0 1 tcp 1040 ------- 0 0.0 1.1 23 59
+ 0.64968 1 0 ack 40 ------- 0 1.1 0.0 23 94
- 0.64968 1 0 ack 40 ------- 0 1.1 0.0 23 94
+ 0.65 2 1 cbr 500 ------- 0 2.0 1.0 30 95
r 0.651429 2 1 cbr 500 ------- 0 2.0 1.0 22 61
r 0.65152 1 0 ack 40 ------- 0 1.1 0.0 21 89
+ 0.65152 0 1 tcp 1040 ------- 0 0.0 1.1 41 96
- 0.65216 0 1 tcp 1040 ------- 0 0.0 1.1 27 67
r 0.65384 0 1 tcp 1040 ------- 0 0.0 1.1 24 60
+ 0.65384 1 0 ack 40 ------- 0 1.1 0.0 24 97
- 0.65384 1 0 ack 40 ------- 0 1.1 0.0 24 97
- 0.654286 2 1 cbr 500 ------- 0 2.0 1.0 27 84
+ 0.655 2 1 cbr 500 ------- 0 2.0 1.0 31 98
r 0.65568 1 0 ack 40 ------- 0 1.1 0.0 22 92
+ 0.65568 0 1 tcp 1040 ------- 0 0.0 1.1 42 99
- 0.65632 0 1 tcp 1040 ------- 0 0.0 1.1 29 71
r 0.657143 2 1 cbr 500 ------- 0 2.0 1.0 23 65
r 0.658 0 1 tcp 1040 ------- 0 0.0 1.1 25 63
+ 0.658 1 0 ack 40 ------- 0 1.1 0.0 25 100
- 0.658 1 0 ack 40 ------- 0 1.1 0.0 25 100
r 0.65984 1 0 ack 40 ------- 0 1.1 0.0 23 94
+ 0.65984 0 1 tcp 1040 ------- 0 0.0 1.1 43 101
- 0.66 2 1 cbr 500 ------- 0 2.0 1.0 28 88
+ 0.66 2 1 cbr 500 ------- 0 2.0 1.0 32 102
- 0.66048 0 1 tcp 1040 ------- 0 0.0 1.1 31 75
r 0.66216 0 1 tcp 1040 ------- 0 0.0 1.1 26 64
+ 0.66216 1 0 ack 40 ------- 0 1.1 0.0 26 103
- 0.66216 1 0 ack 40 ------- 0 1.1 0.0 26 103
r 0.662857 2 1 cbr 500 ------- 0 2.0 1.0 24 69
r 0.664 1 0 ack 40 ------- 0 1.1 0.0 24 97
+ 0.664 0 1 tcp 1040 ------- 0 0.0 1.1 44 104
- 0.66464 0 1 tcp 1040 ------- 0 0.0 1.1 33 79
+ 0.665 2 1 cbr 500 ------- 0 2.0 1.0 33 105
- 0.665714 2 1 cbr 500 ------- 0 2.0 1.0 29 91
r 0.66632 0 1 tcp 1040 ------- 0 0.0 1.1 27 67
+ 0.66632 1 0 ack 40 ------- 0 1.1 0.0 27 106
- 0.66632 1 0 ack 40 ------- 0 1.1 0.0 27 106
r 0.66816 1 0 ack 40 ------- 0 1.1 0.0 25 100
+ 0.66816 0 1 tcp 1040 ------- 0 0.0 1.1 45 107
r 0.668571 2 1 cbr 500 ------- 0 2.0 1.0 25 74
- 0.6688 0 1 tcp 1040 ------- 0 0.0 1.1 35 82
+ 0.67 2 1 cbr 500 ------- 0 2.0 1.0 34 108
r 0.67048 0 1 tcp 1040 ------- 0 0.0 1.1 29 71
+ 0.67048 1 0 ack 40 ------- 0 1.1 0.0 27 109
- 0.67048 1 0 ack 40 ------- 0 1.1 0.0 27 109
- 0.671429 2 1 cbr 500 ------- 0 2.0 1.0 30 95
r 0.67232 1 0 ack 40 ------- 0 1.1 0.0 26 103
+ 0.67232 0 1 tcp 1040 ------- 0 0.0 1.1 46 110
- 0.67296 0 1 tcp 1040 ------- 0 0.0 1.1 37 86
r 0.674286 2 1 cbr 500 ------- 0 2.0 1.0 26 78
r 0.67464 0 1 tcp 1040 ------- 0 0.0 1.1 31 75
+ 0.67464 1 0 ack 40 ------- 0 1.1 0.0 27 111
- 0.67464 1 0 ack 40 ------- 0 1.1 0.0 27 111
+ 0.675 2 1 cbr 500 ------- 0 2.0 1.0 35 112
r 0.67648 1 0 ack 40 ------- 0 1.1 0.0 27 106
+ 0.67648 0 1 tcp 1040 ------- 0 0.0 1.1 47 113
- 0.67712 0 1 tcp 1040 ------- 0 0.0 1.1 39 90
- 0.677143 2 1 cbr 500 ------- 0 2.0 1.0 31 98
r 0.6788 0 1 tcp 1040 ------- 0 0.0 1.1 33 79
+ 0.6788 1 0 ack 40 ------- 0 1.1 0.0 27 114
- 0.6788 1 0 ack 40 ------- 0 1.1 0.0 27 114
r 0.68 2 1 cbr 500 ------- 0 2.0 1.0 27 84
+ 0.68 2 1 cbr 500 ------- 0 2.0 1.0 36 115
r 0.68064 1 0 ack 40 ------- 0 1.1 0.0 27 109
- 0.68128 0 1 tcp 1040 ------- 0 0.0 1.1 40 93
- 0.682857 2 1 cbr 500 ------- 0 2.0 1.0 32 102
r 0.68296 0 1 tcp 1040 ------- 0 0.0 1.1 35 82
+ 0.68296 1 0 ack 40 ------- 0 1.1 0.0 27 116
- 0.68296 1 0 ack 40 ------- 0 1.1 0.0 27 116
r 0.6848 1 0 ack 40 ------- 0 1.1 0.0 27 111
+ 0.685 2 1 cbr 500 ------- 0 2.0 1.0 37 117
- 0.68544 0 1 tcp 1040 ------- 0 0.0 1.1 41 96
r 0.685714 2 1 cbr 500 ------- 0 2.0 1.0 28 88
r 0.68712 0 1 tcp 1040 ------- 0 0.0 1.1 37 86
+ 0.68712 1 0 ack 40 ------- 0 1.1 0.0 27 118
- 0.68712 1 0 ack 40 ------- 0 1.1 0.0 27 118
- 0.688571 2 1 cbr 500 ------- 0 2.0 1.0 33 105
r 0.68896 1 0 ack 40 ------- 0 1.1 0.0 27 114
+ 0.68896 0 1 tcp 1040 ---A--- 0 0.0 1.1 28 119
- 0.6896 0 1 tcp 1040 ------- 0 0.0 1.1 42 99
+ 0.69 2 1 cbr 500 ------- 0 2.0 1.0 38 120
r 0.69128 0 1 tcp 1040 ------- 0 0.0 1.1 39 90
+ 0.69128 1 0 ack 40 ------- 0 1.1 0.0 27 121
- 0.69128 1 0 ack 40 ------- 0 1.1 0.0 27 121
r 0.691429 2 1 cbr 500 ------- 0 2.0 1.0 29 91
r 0.69312 1 0 ack 40 ------- 0 1.1 0.0 27 116
- 0.69376 0 1 tcp 1040 ------- 0 0.0 1.1 43 101
- 0.694286 2 1 cbr 500 ------- 0 2.0 1.0 34 108
+ 0.695 2 1 cbr 500 ------- 0 2.0 1.0 39 122
r 0.69544 0 1 tcp 1040 ------- 0 0.0 1.1 40 93
+ 0.69544 1 0 ack 40 ------- 0 1.1 0.0 27 123
- 0.69544 1 0 ack 40 ------- 0 1.1 0.0 27 123
r 0.697143 2 1 cbr 500 ------- 0 2.0 1.0 30 95
r 0.69728 1 0 ack 40 ------- 0 1.1 0.0 27 118
- 0.69792 0 1 tcp 1040 ------- 0 0.0 1.1 44 104
r 0.6996 0 1 tcp 1040 ------- 0 0.0 1.1 41 96
+ 0.6996 1 0 ack 40 ------- 0 1.1 0.0 27 124
- 0.6996 1 0 ack 40 ------- 0 1.1 0.0 27 124
- 0.7 2 1 cbr 500 ------- 0 2.0 1.0 35 112
+ 0.7 2 1 cbr 500 ------- 0 2.0 1.0 40 125
r 0.70144 1 0 ack 40 ------- 0 1.1 0.0 27 121
- 0.70208 0 1 tcp 1040 ------- 0 0.0 1.1 45 107
r 0.702857 2 1 cbr 500 ------- 0 2.0 1.0 31 98
r 0.70376 0 1 tcp 1040 ------- 0 0.0 1.1 42 99
+ 0.70376 1 0 ack 40 ------- 0 1.1 0.0 27 126
- 0.70376 1 0 ack 40 ------- 0 1.1 0.0 27 126
+ 0.705 2 1 cbr 500 ------- 0 2.0 1.0 41 127
r 0.7056 1 0 ack 40 ------- 0 1.1 0.0 27 123
- 0.705714 2 1 cbr 500 ------- 0 2.0 1.0 36 115
- 0.70624 0 1 tcp 1040 ------- 0 0.0 1.1 46 110
r 0.70792 0 1 tcp 1040 ------- 0 0.0 1.1 43 101
+ 0.70792 1 0 ack 40 ------- 0 1.1 0.0 27 128
- 0.70792 1 0 ack 40 ------- 0 1.1 0.0 27 128
r 0.708571 2 1 cbr 500 ------- 0 2.0 1.0 32 102
r 0.70976 1 0 ack 40 ------- 0 1.1 0.0 27 124
+ 0.71 2 1 cbr 500 ------- 0 2.0 1.0 42 129
- 0.7104 0 1 tcp 1040 ------- 0 0.0 1.1 47 113
- 0.711429 2 1 cbr 500 ------- 0 2.0 1.0 37 117
r 0.71208 0 1 tcp 1040 ------- 0 0.0 1.1 44 104
+ 0.71208 1 0 ack 40 ------- 0 1.1 0.0 27 130
- 0.71208 1 0 ack 40 ------- 0 1.1 0.0 27 130
r 0.71392 1 0 ack 40 ------- 0 1.1 0.0 27 126
r 0.714286 2 1 cbr 500 ------- 0 2.0 1.0 33 105
- 0.71456 0 1 tcp 1040 ---A--- 0 0.0 1.1 28 119
+ 0.715 2 1 cbr 500 ------- 0 2.0 1.0 43 131
r 0.71624 0 1 tcp 1040 ------- 0 0.0 1.1 45 107
+ 0.71624 1 0 ack 40 ------- 0 1.1 0.0 27 132
- 0.71624 1 0 ack 40 ------- 0 1.1 0.0 27 132
- 0.717143 2 1 cbr 500 ------- 0 2.0 1.0 38 120
r 0.71808 1 0 ack 40 ------- 0 1.1 0.0 27 128
r 0.72 2 1 cbr 500 ------- 0 2.0 1.0 34 108
+ 0.72 2 1 cbr 500 ------- 0 2.0 1.0 44 133
r 0.7204 0 1 tcp 1040 ------- 0 0.0 1.1 46 110
+ 0.7204 1 0 ack 40 ------- 0 1.1 0.0 27 134
- 0.7204 1 0 ack 40 ------- 0 1.1 0.0 27 134
r 0.72224 1 0 ack 40 ------- 0 1.1 0.0 27 130
- 0.722857 2 1 cbr 500 ------- 0 2.0 1.0 39 122
r 0.72456 0 1 tcp 1040 ------- 0 0.0 1.1 47 113
+ 0.72456 1 0 ack 40 ------- 0 1.1 0.0 27 135
- 0.72456 1 0 ack 40 ------- 0 1.1 0.0 27 135
+ 0.725 2 1 cbr 500 ------- 0 2.0 1.0 45 136
r 0.725714 2 1 cbr 500 ------- 0 2.0 1.0 35 112
r 0.7264 1 0 ack 40 ------- 0 1.1 0.0 27 132
- 0.728571 2 1 cbr 500 ------- 0 2.0 1.0 40 125
r 0.72872 0 1 tcp 1040 ---A--- 0 0.0 1.1 28 119
+ 0.72872 1 0 ack 40 ------- 0 1.1 0.0 29 137
- 0.72872 1 0 ack 40 ------- 0 1.1 0.0 29 137
+ 0.73 2 1 cbr 500 ------- 0 2.0 1.0 46 138
r 0.73056 1 0 ack 40 ------- 0 1.1 0.0 27 134
r 0.731429 2 1 cbr 500 ------- 0 2.0 1.0 36 115
- 0.734286 2 1 cbr 500 ------- 0 2.0 1.0 41 127
r 0.73472 1 0 ack 40 ------- 0 1.1 0.0 27 135
+ 0.735 2 1 cbr 500 ------- 0 2.0 1.0 47 139
r 0.737143 2 1 cbr 500 ------- 0 2.0 1.0 37 117
r 0.73888 1 0 ack 40 ------- 0 1.1 0.0 29 137
+ 0.73888 0 1 tcp 1040 ------- 0 0.0 1.1 30 140
- 0.73888 0 1 tcp 1040 ------- 0 0.0 1.1 30 140
+ 0.73888 0 1 tcp 1040 ------- 0 0.0 1.1 31 141
- 0.74 2 1 cbr 500 ------- 0 2.0 1.0 42 129
+ 0.74 2 1 cbr 500 ------- 0 2.0 1.0 48 142
r 0.742857 2 1 cbr 500 ------- 0 2.0 1.0 38 120
- 0.74304 0 1 tcp 1040 ------- 0 0.0 1.1 31 141
+ 0.745 2 1 cbr 500 ------- 0 2.0 1.0 49 143
- 0.745714 2 1 cbr 500 ------- 0 2.0 1.0 43 131
r 0.748571 2 1 cbr 500 ------- 0 2.0 1.0 39 122
+ 0.75 2 1 cbr 500 ------- 0 2.0 1.0 50 144
- 0.751429 2 1 cbr 500 ------- 0 2.0 1.0 44 133
r 0.75304 0 1 tcp 1040 ------- 0 0.0 1.1 30 140
+ 0.75304 1 0 ack 40 ------- 0 1.1 0.0 31 145
- 0.75304 1 0 ack 40 ------- 0 1.1 0.0 31 145
r 0.754286 2 1 cbr 500 ------- 0 2.0 1.0 40 125
+ 0.755 2 1 cbr 500 ------- 0 2.0 1.0 51 146
- 0.757143 2 1 cbr 500 ------- 0 2.0 1.0 45 136
r 0.7572 0 1 tcp 1040 ------- 0 0.0 1.1 31 141
+ 0.7572 1 0 ack 40 ------- 0 1.1 0.0 31 147
- 0.7572 1 0 ack 40 ------- 0 1.1 0.0 31 147
r 0.76 2 1 cbr 500 ------- 0 2.0 1.0 41 127
+ 0.76 2 1 cbr 500 ------- 0 2.0 1.0 52 148
- 0.762857 2 1 cbr 500 ------- 0 2.0 1.0 46 138
r 0.7632 1 0 ack 40 ------- 0 1.1 0.0 31 145
+ 0.7632 0 1 tcp 1040 ------- 0 0.0 1.1 32 149
- 0.7632 0 1 tcp 1040 ------- 0 0.0 1.1 32 149
+ 0.7632 0 1 tcp 1040 ------- 0 0.0 1.1 33 150
+ 0.7632 0 1 tcp 1040 ------- 0 0.0 1.1 34 151
+ 0.765 2 1 cbr 500 ------- 0 2.0 1.0 53 152
r 0.765714 2 1 cbr 500 ------- 0 2.0 1.0 42 129
r 0.76736 1 0 ack 40 ------- 0 1.1 0.0 31 147
+ 0.76736 0 1 tcp 1040 ------- 0 0.0 1.1 35 153
- 0.76736 0 1 tcp 1040 ------- 0 0.0 1.1 33 150
- 0.768571 2 1 cbr 500 ------- 0 2.0 1.0 47 139
+ 0.77 2 1 cbr 500 ------- 0 2.0 1.0 54 154
r 0.771429 2 1 cbr 500 ------- 0 2.0 1.0 43 131
- 0.77152 0 1 tcp 1040 ------- 0 0.0 1.1 34 151
- 0.774286 2 1 cbr 500 ------- 0 2.0 1.0 48 142
+ 0.775 2 1 cbr 500 ------- 0 2.0 1.0 55 155
- 0.77568 0 1 tcp 1040 ------- 0 0.0 1.1 35 153
r 0.777143 2 1 cbr 500 ------- 0 2.0 1.0 44 133
r 0.77736 0 1 tcp 1040 ------- 0 0.0 1.1 32 149
+ 0.77736 1 0 ack 40 ------- 0 1.1 0.0 33 156
- 0.77736 1 0 ack 40 ------- 0 1.1 0.0 33 156
- 0.78 2 1 cbr 500 ------- 0 2.0 1.0 49 143
+ 0.78 2 1 cbr 500 ------- 0 2.0 1.0 56 157
r 0.78152 0 1 tcp 1040 ------- 0 0.0 1.1 33 150
+ 0.78152 1 0 ack 40 ------- 0 1.1 0.0 33 158
- 0.78152 1 0 ack 40 ------- 0 1.1 0.0 33 158
r 0.782857 2 1 cbr 500 ------- 0 2.0 1.0 45 136
+ 0.785 2 1 cbr 500 ------- 0 2.0 1.0 57 159
r 0.78568 0 1 tcp 1040 ------- 0 0.0 1.1 34 151
+ 0.78568 1 0 ack 40 ------- 0 1.1 0.0 35 160
- 0.78568 1 0 ack 40 ------- 0 1.1 0.0 35 160
- 0.785714 2 1 cbr 500 ------- 0 2.0 1.0 50 144
r 0.78752 1 0 ack 40 ------- 0 1.1 0.0 33 156
+ 0.78752 0 1 tcp 1040 ------- 0 0.0 1.1 36 161
- 0.78752 0 1 tcp 1040 ------- 0 0.0 1.1 36 161
+ 0.78752 0 1 tcp 1040 ------- 0 0.0 1.1 37 162
r 0.788571 2 1 cbr 500 ------- 0 2.0 1.0 46 138
r 0.78984 0 1 tcp 1040 ------- 0 0.0 1.1 35 153
+ 0.78984 1 0 ack 40 ------- 0 1.1 0.0 35 163
- 0.78984 1 0 ack 40 ------- 0 1.1 0.0 35 163
+ 0.79 2 1 cbr 500 ------- 0 2.0 1.0 58 164
- 0.791429 2 1 cbr 500 ------- 0 2.0 1.0 51 146
r 0.79168 1 0 ack 40 ------- 0 1.1 0.0 33 158
+ 0.79168 0 1 tcp 1040 ------- 0 0.0 1.1 38 165
- 0.79168 0 1 tcp 1040 ------- 0 0.0 1.1 37 162
r 0.794286 2 1 cbr 500 ------- 0 2.0 1.0 47 139
+ 0.795 2 1 cbr 500 ------- 0 2.0 1.0 59 166
r 0.79584 1 0 ack 40 ------- 0 1.1 0.0 35 160
+ 0.79584 0 1 tcp 1040 ------- 0 0.0 1.1 39 167
+ 0.79584 0 1 tcp 1040 ------- 0 0.0 1.1 40 168
- 0.79584 0 1 tcp 1040 ------- 0 0.0 1.1 38 165
- 0.797143 2 1 cbr 500 ------- 0 2.0 1.0 52 148
r 0.8 2 1 cbr 500 ------- 0 2.0 1.0 48 142
+ 0.8 2 1 cbr 500 ------- 0 2.0 1.0 60 169
r 0.8 1 0 ack 40 ------- 0 1.1 0.0 35 163
+ 0.8 0 1 tcp 1040 ------- 0 0.0 1.1 41 170
- 0.8 0 1 tcp 1040 ------- 0 0.0 1.1 39 167
r 0.80168 0 1 tcp 1040 ------- 0 0.0 1.1 36 161
+ 0.80168 1 0 ack 40 ------- 0 1.1 0.0 37 171
- 0.80168 1 0 ack 40 ------- 0 1.1 0.0 37 171
- 0.802857 2 1 cbr 500 ------- 0 2.0 1.0 53 152
- 0.80416 0 1 tcp 1040 ------- 0 0.0 1.1 40 168
+ 0.805 2 1 cbr 500 ------- 0 2.0 1.0 61 172
r 0.805714 2 1 cbr 500 ------- 0 2.0 1.0 49 143
r 0.80584 0 1 tcp 1040 ------- 0 0.0 1.1 37 162
+ 0.80584 1 0 ack 40 ------- 0 1.1 0.0 37 173
- 0.80584 1 0 ack 40 ------- 0 1.1 0.0 37 173
- 0.80832 0 1 tcp 1040 ------- 0 0.0 1.1 41 170
- 0.808571 2 1 cbr 500 ------- 0 2.0 1.0 54 154
+ 0.81 2 1 cbr 500 ------- 0 2.0 1.0 62 174
r 0.81 0 1 tcp 1040 ------- 0 0.0 1.1 38 165
+ 0.81 1 0 ack 40 ------- 0 1.1 0.0 47 175
- 0.81 1 0 ack 40 ------- 0 1.1 0.0 47 175
r 0.811429 2 1 cbr 500 ------- 0 2.0 1.0 50 144
r 0.81184 1 0 ack 40 ------- 0 1.1 0.0 37 171
+ 0.81184 0 1 tcp 1040 ------- 0 0.0 1.1 42 176
+ 0.81184 0 1 tcp 1040 ------- 0 0.0 1.1 43 177
- 0.81248 0 1 tcp 1040 ------- 0 0.0 1.1 42 176
r 0.81416 0 1 tcp 1040 ------- 0 0.0 1.1 39 167
+ 0.81416 1 0 ack 40 ------- 0 1.1 0.0 47 178
- 0.81416 1 0 ack 40 ------- 0 1.1 0.0 47 178
- 0.814286 2 1 cbr 500 ------- 0 2.0 1.0 55 155
+ 0.815 2 1 cbr 500 ------- 0 2.0 1.0 63 179
r 0.816 1 0 ack 40 ------- 0 1.1 0.0 37 173
+ 0.816 0 1 tcp 1040 ------- 0 0.0 1.1 44 180
- 0.81664 0 1 tcp 1040 ------- 0 0.0 1.1 43 177
r 0.817143 2 1 cbr 500 ------- 0 2.0 1.0 51 146
r 0.81832 0 1 tcp 1040 ------- 0 0.0 1.1 40 168
+ 0.81832 1 0 ack 40 ------- 0 1.1 0.0 47 181
- 0.81832 1 0 ack 40 ------- 0 1.1 0.0 47 181
- 0.82 2 1 cbr 500 ------- 0 2.0 1.0 56 157
+ 0.82 2 1 cbr 500 ------- 0 2.0 1.0 64 182
r 0.82016 1 0 ack 40 ------- 0 1.1 0.0 47 175
+ 0.82016 0 1 tcp 1040 ------- 0 0.0 1.1 48 183
+ 0.82016 0 1 tcp 1040 ------- 0 0.0 1.1 49 184
+ 0.82016 0 1 tcp 1040 ------- 0 0.0 1.1 50 185
+ 0.82016 0 1 tcp 1040 ------- 0 0.0 1.1 51 186
+ 0.82016 0 1 tcp 1040 ------- 0 0.0 1.1 52 187
+ 0.82016 0 1 tcp 1040 ------- 0 0.0 1.1 53 188
+ 0.82016 0 1 tcp 1040 ------- 0 0.0 1.1 54 189
- 0.8208 0 1 tcp 1040 ------- 0 0.0 1.1 44 180
r 0.82248 0 1 tcp 1040 ------- 0 0.0 1.1 41 170
+ 0.82248 1 0 ack 40 ------- 0 1.1 0.0 47 190
- 0.82248 1 0 ack 40 ------- 0 1.1 0.0 47 190
r 0.822857 2 1 cbr 500 ------- 0 2.0 1.0 52 148
r 0.82432 1 0 ack 40 ------- 0 1.1 0.0 47 178
+ 0.82432 0 1 tcp 1040 ------- 0 0.0 1.1 55 191
- 0.82496 0 1 tcp 1040 ------- 0 0.0 1.1 48 183
+ 0.825 2 1 cbr 500 ------- 0 2.0 1.0 65 192
- 0.825714 2 1 cbr 500 ------- 0 2.0 1.0 57 159
r 0.82664 0 1 tcp 1040 ------- 0 0.0 1.1 42 176
+ 0.82664 1 0 ack 40 ------- 0 1.1 0.0 47 193
- 0.82664 1 0 ack 40 ------- 0 1.1 0.0 47 193
r 0.82848 1 0 ack 40 ------- 0 1.1 0.0 47 181
+ 0.82848 0 1 tcp 1040 ------- 0 0.0 1.1 56 194
r 0.828571 2 1 cbr 500 ------- 0 2.0 1.0 53 152
- 0.82912 0 1 tcp 1040 ------- 0 0.0 1.1 49 184
+ 0.83 2 1 cbr 500 ------- 0 2.0 1.0 66 195
r 0.8308 0 1 tcp 1040 ------- 0 0.0 1.1 43 177
+ 0.8308 1 0 ack 40 ------- 0 1.1 0.0 47 196
- 0.8308 1 0 ack 40 ------- 0 1.1 0.0 47 196
- 0.831429 2 1 cbr 500 ------- 0 2.0 1.0 58 164
r 0.83264 1 0 ack 40 ------- 0 1.1 0.0 47 190
- 0.83328 0 1 tcp 1040 ------- 0 0.0 1.1 50 185
r 0.834286 2 1 cbr 500 ------- 0 2.0 1.0 54 154
r 0.83496 0 1 tcp 1040 ------- 0 0.0 1.1 44 180
+ 0.83496 1 0 ack 40 ------- 0 1.1 0.0 47 197
- 0.83496 1 0 ack 40 ------- 0 1.1 0.0 47 197
+ 0.835 2 1 cbr 500 ------- 0 2.0 1.0 67 198
r 0.8368 1 0 ack 40 ------- 0 1.1 0.0 47 193
- 0.837143 2 1 cbr 500 ------- 0 2.0 1.0 59 166
- 0.83744 0 1 tcp 1040 ------- 0 0.0 1.1 51 186
r 0.83912 0 1 tcp 1040 ------- 0 0.0 1.1 48 183
+ 0.83912 1 0 ack 40 ------- 0 1.1 0.0 48 199
- 0.83912 1 0 ack 40 ------- 0 1.1 0.0 48 199
r 0.84 2 1 cbr 500 ------- 0 2.0 1.0 55 155
+ 0.84 2 1 cbr 500 ------- 0 2.0 1.0 68 200
r 0.84096 1 0 ack 40 ------- 0 1.1 0.0 47 196
- 0.8416 0 1 tcp 1040 ------- 0 0.0 1.1 52 187
- 0.842857 2 1 cbr 500 ------- 0 2.0 1.0 60 169
r 0.84328 0 1 tcp 1040 ------- 0 0.0 1.1 49 184
+ 0.84328 1 0 ack 40 ------- 0 1.1 0.0 49 201
- 0.84328 1 0 ack 40 ------- 0 1.1 0.0 49 201
+ 0.845 2 1 cbr 500 ------- 0 2.0 1.0 69 202
r 0.84512 1 0 ack 40 ------- 0 1.1 0.0 47 197
r 0.845714 2 1 cbr 500 ------- 0 2.0 1.0 56 157
- 0.84576 0 1 tcp 1040 ------- 0 0.0 1.1 53 188
r 0.84744 0 1 tcp 1040 ------- 0 0.0 1.1 50 185
+ 0.84744 1 0 ack 40 ------- 0 1.1 0.0 50 203
- 0.84744 1 0 ack 40 ------- 0 1.1 0.0 50 203
- 0.848571 2 1 cbr 500 ------- 0 2.0 1.0 61 172
r 0.84928 1 0 ack 40 ------- 0 1.1 0.0 48 199
- 0.84992 0 1 tcp 1040 ------- 0 0.0 1.1 54 189
+ 0.85 2 1 cbr 500 ------- 0 2.0 1.0 70 204
r 0.851429 2 1 cbr 500 ------- 0 2.0 1.0 57 159
r 0.8516 0 1 tcp 1040 ------- 0 0.0 1.1 51 186
+ 0.8516 1 0 ack 40 ------- 0 1.1 0.0 51 205
- 0.8516 1 0 ack 40 ------- 0 1.1 0.0 51 205
r 0.85344 1 0 ack 40 ------- 0 1.1 0.0 49 201
+ 0.85344 0 1 tcp 1040 ------- 0 0.0 1.1 57 206
+ 0.85344 0 1 tcp 1040 ------- 0 0.0 1.1 58 207
- 0.85408 0 1 tcp 1040 ------- 0 0.0 1.1 55 191
- 0.854286 2 1 cbr 500 ------- 0 2.0 1.0 62 174
+ 0.855 2 1 cbr 500 ------- 0 2.0 1.0 71 208
r 0.85576 0 1 tcp 1040 ------- 0 0.0 1.1 52 187
+ 0.85576 1 0 ack 40 ------- 0 1.1 0.0 52 209
- 0.85576 1 0 ack 40 ------- 0 1.1 0.0 52 209
r 0.857143 2 1 cbr 500 ------- 0 2.0 1.0 58 164
r 0.8576 1 0 ack 40 ------- 0 1.1 0.0 50 203
+ 0.8576 0 1 tcp 1040 ------- 0 0.0 1.1 59 210
+ 0.8576 0 1 tcp 1040 ------- 0 0.0 1.1 60 211
- 0.85824 0 1 tcp 1040 ------- 0 0.0 1.1 56 194
r 0.85992 0 1 tcp 1040 ------- 0 0.0 1.1 53 188
+ 0.85992 1 0 ack 40 ------- 0 1.1 0.0 53 212
- 0.85992 1 0 ack 40 ------- 0 1.1 0.0 53 212
- 0.86 2 1 cbr 500 ------- 0 2.0 1.0 63 179
+ 0.86 2 1 cbr 500 ------- 0 2.0 1.0 72 213
r 0.86176 1 0 ack 40 ------- 0 1.1 0.0 51 205
+ 0.86176 0 1 tcp 1040 ------- 0 0.0 1.1 61 214
- 0.8624 0 1 tcp 1040 ------- 0 0.0 1.1 57 206
r 0.862857 2 1 cbr 500 ------- 0 2.0 1.0 59 166
r 0.86408 0 1 tcp 1040 ------- 0 0.0 1.1 54 189
+ 0.86408 1 0 ack 40 ------- 0 1.1 0.0 54 215
- 0.86408 1 0 ack 40 ------- 0 1.1 0.0 54 215
+ 0.865 2 1 cbr 500 ------- 0 2.0 1.0 73 216
d 0.865 2 1 cbr 500 ------- 0 2.0 1.0 73 216
- 0.865714 2 1 cbr 500 ------- 0 2.0 1.0 64 182
r 0.86592 1 0 ack 40 ------- 0 1.1 0.0 52 209
+ 0.86592 0 1 tcp 1040 ------- 0 0.0 1.1 62 217
- 0.86656 0 1 tcp 1040 ------- 0 0.0 1.1 58 207
r 0.86824 0 1 tcp 1040 ------- 0 0.0 1.1 55 191
+ 0.86824 1 0 ack 40 ------- 0 1.1 0.0 55 218
- 0.86824 1 0 ack 40 ------- 0 1.1 0.0 55 218
r 0.868571 2 1 cbr 500 ------- 0 2.0 1.0 60 169
+ 0.87 2 1 cbr 500 ------- 0 2.0 1.0 74 219
r 0.87008 1 0 ack 40 ------- 0 1.1 0.0 53 212
+ 0.87008 0 1 tcp 1040 ------- 0 0.0 1.1 63 220
- 0.87072 0 1 tcp 1040 ------- 0 0.0 1.1 59 210
- 0.871429 2 1 cbr 500 ------- 0 2.0 1.0 65 192
r 0.8724 0 1 tcp 1040 ------- 0 0.0 1.1 56 194
+ 0.8724 1 0 ack 40 ------- 0 1.1 0.0 56 221
- 0.8724 1 0 ack 40 ------- 0 1.1 0.0 56 221
r 0.87424 1 0 ack 40 ------- 0 1.1 0.0 54 215
+ 0.87424 0 1 tcp 1040 ------- 0 0.0 1.1 64 222
r 0.874286 2 1 cbr 500 ------- 0 2.0 1.0 61 172
- 0.87488 0 1 tcp 1040 ------- 0 0.0 1.1 60 211
+ 0.875 2 1 cbr 500 ------- 0 2.0 1.0 75 223
r 0.87656 0 1 tcp 1040 ------- 0 0.0 1.1 57 206
+ 0.87656 1 0 ack 40 ------- 0 1.1 0.0 57 224
- 0.87656 1 0 ack 40 ------- 0 1.1 0.0 57 224
- 0.877143 2 1 cbr 500 ------- 0 2.0 1.0 66 195
r 0.8784 1 0 ack 40 ------- 0 1.1 0.0 55 218
+ 0.8784 0 1 tcp 1040 ------- 0 0.0 1.1 65 225
- 0.87904 0 1 tcp 1040 ------- 0 0.0 1.1 61 214
r 0.88 2 1 cbr 500 ------- 0 2.0 1.0 62 174
+ 0.88 2 1 cbr 500 ------- 0 2.0 1.0 76 226
r 0.88072 0 1 tcp 1040 ------- 0 0.0 1.1 58 207
+ 0.88072 1 0 ack 40 ------- 0 1.1 0.0 58 227
- 0.88072 1 0 ack 40 ------- 0 1.1 0.0 58 227
r 0.88256 1 0 ack 40 ------- 0 1.1 0.0 56 221
+ 0.88256 0 1 tcp 1040 ------- 0 0.0 1.1 66 228
- 0.882857 2 1 cbr 500 ------- 0 2.0 1.0 67 198
- 0.8832 0 1 tcp 1040 ------- 0 0.0 1.1 62 217
r 0.88488 0 1 tcp 1040 ------- 0 0.0 1.1 59 210
+ 0.88488 1 0 ack 40 ------- 0 1.1 0.0 59 229
- 0.88488 1 0 ack 40 ------- 0 1.1 0.0 59 229
+ 0.885 2 1 cbr 500 ------- 0 2.0 1.0 77 230
r 0.885714 2 1 cbr 500 ------- 0 2.0 1.0 63 179
r 0.88672 1 0 ack 40 ------- 0 1.1 0.0 57 224
+ 0.88672 0 1 tcp 1040 ------- 0 0.0 1.1 67 231