+ 0.01 0 2 ping 64 ------- 1 0.0 5.0 -1 0
- 0.01 0 2 ping 64 ------- 1 0.0 5.0 -1 0
+ 0.01 1 3 ping 64 ------- 2 1.0 4.0 -1 1
- 0.01 1 3 ping 64 ------- 2 1.0 4.0 -1 1
+ 0.01 4 2 ping 64 ------- 3 4.0 1.0 -1 2
- 0.01 4 2 ping 64 ------- 3 4.0 1.0 -1 2
+ 0.01 5 3 ping 64 ------- 4 5.0 0.0 -1 3
- 0.01 5 3 ping 64 ------- 4 5.0 0.0 -1 3
+ 0.02 0 2 ping 64 ------- 1 0.0 5.0 -1 4
- 0.02 0 2 ping 64 ------- 1 0.0 5.0 -1 4
+ 0.02 1 3 ping 64 ------- 2 1.0 4.0 -1 5
- 0.02 1 3 ping 64 ------- 2 1.0 4.0 -1 5
+ 0.02 4 2 ping 64 ------- 3 4.0 1.0 -1 6
- 0.02 4 2 ping 64 ------- 3 4.0 1.0 -1 6
+ 0.02 5 3 ping 64 ------- 4 5.0 0.0 -1 7
- 0.02 5 3 ping 64 ------- 4 5.0 0.0 -1 7
r 0.020205 4 2 ping 64 ------- 3 4.0 1.0 -1 2
+ 0.020205 2 3 ping 64 ------- 3 4.0 1.0 -1 2
- 0.020205 2 3 ping 64 ------- 3 4.0 1.0 -1 2
r 0.020205 5 3 ping 64 ------- 4 5.0 0.0 -1 3
+ 0.020205 3 2 ping 64 ------- 4 5.0 0.0 -1 3
- 0.020205 3 2 ping 64 ------- 4 5.0 0.0 -1 3
r 0.020256 0 2 ping 64 ------- 1 0.0 5.0 -1 0
+ 0.020256 2 3 ping 64 ------- 1 0.0 5.0 -1 0
r 0.020256 1 3 ping 64 ------- 2 1.0 4.0 -1 1
+ 0.020256 3 2 ping 64 ------- 2 1.0 4.0 -1 1
- 0.02041 2 3 ping 64 ------- 1 0.0 5.0 -1 0
- 0.02041 3 2 ping 64 ------- 2 1.0 4.0 -1 1
+ 0.03 0 2 ping 64 ------- 1 0.0 5.0 -1 8
- 0.03 0 2 ping 64 ------- 1 0.0 5.0 -1 8
+ 0.03 1 3 ping 64 ------- 2 1.0 4.0 -1 9
- 0.03 1 3 ping 64 ------- 2 1.0 4.0 -1 9
+ 0.03 4 2 ping 64 ------- 3 4.0 1.0 -1 10
- 0.03 4 2 ping 64 ------- 3 4.0 1.0 -1 10
+ 0.03 5 3 ping 64 ------- 4 5.0 0.0 -1 11
- 0.03 5 3 ping 64 ------- 4 5.0 0.0 -1 11
r 0.030205 4 2 ping 64 ------- 3 4.0 1.0 -1 6
+ 0.030205 2 3 ping 64 ------- 3 4.0 1.0 -1 6
- 0.030205 2 3 ping 64 ------- 3 4.0 1.0 -1 6
r 0.030205 5 3 ping 64 ------- 4 5.0 0.0 -1 7
+ 0.030205 3 2 ping 64 ------- 4 5.0 0.0 -1 7
- 0.030205 3 2 ping 64 ------- 4 5.0 0.0 -1 7
r 0.030256 0 2 ping 64 ------- 1 0.0 5.0 -1 4
+ 0.030256 2 3 ping 64 ------- 1 0.0 5.0 -1 4
r 0.030256 1 3 ping 64 ------- 2 1.0 4.0 -1 5
+ 0.030256 3 2 ping 64 ------- 2 1.0 4.0 -1 5
r 0.03041 2 3 ping 64 ------- 3 4.0 1.0 -1 2
+ 0.03041 3 1 ping 64 ------- 3 4.0 1.0 -1 2
- 0.03041 3 1 ping 64 ------- 3 4.0 1.0 -1 2
r 0.03041 3 2 ping 64 ------- 4 5.0 0.0 -1 3
+ 0.03041 2 0 ping 64 ------- 4 5.0 0.0 -1 3
- 0.03041 2 0 ping 64 ------- 4 5.0 0.0 -1 3
- 0.03041 2 3 ping 64 ------- 1 0.0 5.0 -1 4
- 0.03041 3 2 ping 64 ------- 2 1.0 4.0 -1 5
r 0.030614 2 3 ping 64 ------- 1 0.0 5.0 -1 0
+ 0.030614 3 5 ping 64 ------- 1 0.0 5.0 -1 0
- 0.030614 3 5 ping 64 ------- 1 0.0 5.0 -1 0
r 0.030614 3 2 ping 64 ------- 2 1.0 4.0 -1 1
+ 0.030614 2 4 ping 64 ------- 2 1.0 4.0 -1 1
- 0.030614 2 4 ping 64 ------- 2 1.0 4.0 -1 1
+ 0.04 0 2 ping 64 ------- 1 0.0 5.0 -1 12
- 0.04 0 2 ping 64 ------- 1 0.0 5.0 -1 12
+ 0.04 1 3 ping 64 ------- 2 1.0 4.0 -1 13
- 0.04 1 3 ping 64 ------- 2 1.0 4.0 -1 13
+ 0.04 4 2 ping 64 ------- 3 4.0 1.0 -1 14
- 0.04 4 2 ping 64 ------- 3 4.0 1.0 -1 14
+ 0.04 5 3 ping 64 ------- 4 5.0 0.0 -1 15
- 0.04 5 3 ping 64 ------- 4 5.0 0.0 -1 15
r 0.040205 4 2 ping 64 ------- 3 4.0 1.0 -1 10
+ 0.040205 2 3 ping 64 ------- 3 4.0 1.0 -1 10
- 0.040205 2 3 ping 64 ------- 3 4.0 1.0 -1 10
r 0.040205 5 3 ping 64 ------- 4 5.0 0.0 -1 11
+ 0.040205 3 2 ping 64 ------- 4 5.0 0.0 -1 11
- 0.040205 3 2 ping 64 ------- 4 5.0 0.0 -1 11
r 0.040256 0 2 ping 64 ------- 1 0.0 5.0 -1 8
+ 0.040256 2 3 ping 64 ------- 1 0.0 5.0 -1 8
r 0.040256 1 3 ping 64 ------- 2 1.0 4.0 -1 9
+ 0.040256 3 2 ping 64 ------- 2 1.0 4.0 -1 9
- 0.04041 2 3 ping 64 ------- 1 0.0 5.0 -1 8
- 0.04041 3 2 ping 64 ------- 2 1.0 4.0 -1 9
r 0.04041 2 3 ping 64 ------- 3 4.0 1.0 -1 6
+ 0.04041 3 1 ping 64 ------- 3 4.0 1.0 -1 6
- 0.04041 3 1 ping 64 ------- 3 4.0 1.0 -1 6
r 0.04041 3 2 ping 64 ------- 4 5.0 0.0 -1 7
+ 0.04041 2 0 ping 64 ------- 4 5.0 0.0 -1 7
- 0.04041 2 0 ping 64 ------- 4 5.0 0.0 -1 7
r 0.040614 2 3 ping 64 ------- 1 0.0 5.0 -1 4
+ 0.040614 3 5 ping 64 ------- 1 0.0 5.0 -1 4
- 0.040614 3 5 ping 64 ------- 1 0.0 5.0 -1 4
r 0.040614 3 2 ping 64 ------- 2 1.0 4.0 -1 5
+ 0.040614 2 4 ping 64 ------- 2 1.0 4.0 -1 5
- 0.040614 2 4 ping 64 ------- 2 1.0 4.0 -1 5
r 0.040666 3 1 ping 64 ------- 3 4.0 1.0 -1 2
+ 0.040666 1 3 ping 64 ------- 2 1.0 4.0 -1 16
- 0.040666 1 3 ping 64 ------- 2 1.0 4.0 -1 16
r 0.040666 2 0 ping 64 ------- 4 5.0 0.0 -1 3
+ 0.040666 0 2 ping 64 ------- 1 0.0 5.0 -1 17
- 0.040666 0 2 ping 64 ------- 1 0.0 5.0 -1 17
r 0.040819 3 5 ping 64 ------- 1 0.0 5.0 -1 0
+ 0.040819 5 3 ping 64 ------- 4 5.0 0.0 -1 18
- 0.040819 5 3 ping 64 ------- 4 5.0 0.0 -1 18
r 0.040819 2 4 ping 64 ------- 2 1.0 4.0 -1 1
+ 0.040819 4 2 ping 64 ------- 3 4.0 1.0 -1 19
- 0.040819 4 2 ping 64 ------- 3 4.0 1.0 -1 19
+ 0.05 0 2 ping 64 ------- 1 0.0 5.0 -1 20
- 0.05 0 2 ping 64 ------- 1 0.0 5.0 -1 20
+ 0.05 1 3 ping 64 ------- 2 1.0 4.0 -1 21
- 0.05 1 3 ping 64 ------- 2 1.0 4.0 -1 21
+ 0.05 4 2 ping 64 ------- 3 4.0 1.0 -1 22
- 0.05 4 2 ping 64 ------- 3 4.0 1.0 -1 22
+ 0.05 5 3 ping 64 ------- 4 5.0 0.0 -1 23
- 0.05 5 3 ping 64 ------- 4 5.0 0.0 -1 23
r 0.050205 4 2 ping 64 ------- 3 4.0 1.0 -1 14
+ 0.050205 2 3 ping 64 ------- 3 4.0 1.0 -1 14
- 0.050205 2 3 ping 64 ------- 3 4.0 1.0 -1 14
r 0.050205 5 3 ping 64 ------- 4 5.0 0.0 -1 15
+ 0.050205 3 2 ping 64 ------- 4 5.0 0.0 -1 15
- 0.050205 3 2 ping 64 ------- 4 5.0 0.0 -1 15
r 0.050256 0 2 ping 64 ------- 1 0.0 5.0 -1 12
+ 0.050256 2 3 ping 64 ------- 1 0.0 5.0 -1 12
r 0.050256 1 3 ping 64 ------- 2 1.0 4.0 -1 13
+ 0.050256 3 2 ping 64 ------- 2 1.0 4.0 -1 13
r 0.05041 2 3 ping 64 ------- 3 4.0 1.0 -1 10
+ 0.05041 3 1 ping 64 ------- 3 4.0 1.0 -1 10
- 0.05041 3 1 ping 64 ------- 3 4.0 1.0 -1 10
r 0.05041 3 2 ping 64 ------- 4 5.0 0.0 -1 11
+ 0.05041 2 0 ping 64 ------- 4 5.0 0.0 -1 11
- 0.05041 2 0 ping 64 ------- 4 5.0 0.0 -1 11
- 0.05041 2 3 ping 64 ------- 1 0.0 5.0 -1 12
- 0.05041 3 2 ping 64 ------- 2 1.0 4.0 -1 13
r 0.050614 2 3 ping 64 ------- 1 0.0 5.0 -1 8
+ 0.050614 3 5 ping 64 ------- 1 0.0 5.0 -1 8
- 0.050614 3 5 ping 64 ------- 1 0.0 5.0 -1 8
r 0.050614 3 2 ping 64 ------- 2 1.0 4.0 -1 9
+ 0.050614 2 4 ping 64 ------- 2 1.0 4.0 -1 9
- 0.050614 2 4 ping 64 ------- 2 1.0 4.0 -1 9
r 0.050666 3 1 ping 64 ------- 3 4.0 1.0 -1 6
+ 0.050666 1 3 ping 64 ------- 2 1.0 4.0 -1 24
- 0.050666 1 3 ping 64 ------- 2 1.0 4.0 -1 24
r 0.050666 2 0 ping 64 ------- 4 5.0 0.0 -1 7
+ 0.050666 0 2 ping 64 ------- 1 0.0 5.0 -1 25
- 0.050666 0 2 ping 64 ------- 1 0.0 5.0 -1 25
r 0.050819 3 5 ping 64 ------- 1 0.0 5.0 -1 4
+ 0.050819 5 3 ping 64 ------- 4 5.0 0.0 -1 26
- 0.050819 5 3 ping 64 ------- 4 5.0 0.0 -1 26
r 0.050819 2 4 ping 64 ------- 2 1.0 4.0 -1 5
+ 0.050819 4 2 ping 64 ------- 3 4.0 1.0 -1 27
- 0.050819 4 2 ping 64 ------- 3 4.0 1.0 -1 27
r 0.050922 1 3 ping 64 ------- 2 1.0 4.0 -1 16
+ 0.050922 3 2 ping 64 ------- 2 1.0 4.0 -1 16
- 0.050922 3 2 ping 64 ------- 2 1.0 4.0 -1 16
r 0.050922 0 2 ping 64 ------- 1 0.0 5.0 -1 17
+ 0.050922 2 3 ping 64 ------- 1 0.0 5.0 -1 17
- 0.050922 2 3 ping 64 ------- 1 0.0 5.0 -1 17
r 0.051024 5 3 ping 64 ------- 4 5.0 0.0 -1 18
+ 0.051024 3 2 ping 64 ------- 4 5.0 0.0 -1 18
r 0.051024 4 2 ping 64 ------- 3 4.0 1.0 -1 19
+ 0.051024 2 3 ping 64 ------- 3 4.0 1.0 -1 19
- 0.051126 3 2 ping 64 ------- 4 5.0 0.0 -1 18
- 0.051126 2 3 ping 64 ------- 3 4.0 1.0 -1 19
+ 0.06 0 2 ping 64 ------- 1 0.0 5.0 -1 28
- 0.06 0 2 ping 64 ------- 1 0.0 5.0 -1 28
+ 0.06 1 3 ping 64 ------- 2 1.0 4.0 -1 29
- 0.06 1 3 ping 64 ------- 2 1.0 4.0 -1 29
+ 0.06 4 2 ping 64 ------- 3 4.0 1.0 -1 30
- 0.06 4 2 ping 64 ------- 3 4.0 1.0 -1 30
+ 0.06 5 3 ping 64 ------- 4 5.0 0.0 -1 31
- 0.06 5 3 ping 64 ------- 4 5.0 0.0 -1 31
r 0.060205 4 2 ping 64 ------- 3 4.0 1.0 -1 22
+ 0.060205 2 3 ping 64 ------- 3 4.0 1.0 -1 22
- 0.060205 2 3 ping 64 ------- 3 4.0 1.0 -1 22
r 0.060205 5 3 ping 64 ------- 4 5.0 0.0 -1 23
+ 0.060205 3 2 ping 64 ------- 4 5.0 0.0 -1 23
- 0.060205 3 2 ping 64 ------- 4 5.0 0.0 -1 23
r 0.060256 0 2 ping 64 ------- 1 0.0 5.0 -1 20
+ 0.060256 2 3 ping 64 ------- 1 0.0 5.0 -1 20
r 0.060256 1 3 ping 64 ------- 2 1.0 4.0 -1 21
+ 0.060256 3 2 ping 64 ------- 2 1.0 4.0 -1 21
r 0.06041 2 3 ping 64 ------- 3 4.0 1.0 -1 14
+ 0.06041 3 1 ping 64 ------- 3 4.0 1.0 -1 14
- 0.06041 3 1 ping 64 ------- 3 4.0 1.0 -1 14
r 0.06041 3 2 ping 64 ------- 4 5.0 0.0 -1 15
+ 0.06041 2 0 ping 64 ------- 4 5.0 0.0 -1 15
- 0.06041 2 0 ping 64 ------- 4 5.0 0.0 -1 15
- 0.06041 2 3 ping 64 ------- 1 0.0 5.0 -1 20
- 0.06041 3 2 ping 64 ------- 2 1.0 4.0 -1 21
r 0.060614 2 3 ping 64 ------- 1 0.0 5.0 -1 12
+ 0.060614 3 5 ping 64 ------- 1 0.0 5.0 -1 12
- 0.060614 3 5 ping 64 ------- 1 0.0 5.0 -1 12
r 0.060614 3 2 ping 64 ------- 2 1.0 4.0 -1 13
+ 0.060614 2 4 ping 64 ------- 2 1.0 4.0 -1 13
- 0.060614 2 4 ping 64 ------- 2 1.0 4.0 -1 13
r 0.060666 3 1 ping 64 ------- 3 4.0 1.0 -1 10
+ 0.060666 1 3 ping 64 ------- 2 1.0 4.0 -1 32
- 0.060666 1 3 ping 64 ------- 2 1.0 4.0 -1 32
r 0.060666 2 0 ping 64 ------- 4 5.0 0.0 -1 11
+ 0.060666 0 2 ping 64 ------- 1 0.0 5.0 -1 33
- 0.060666 0 2 ping 64 ------- 1 0.0 5.0 -1 33
r 0.060819 3 5 ping 64 ------- 1 0.0 5.0 -1 8
+ 0.060819 5 3 ping 64 ------- 4 5.0 0.0 -1 34
- 0.060819 5 3 ping 64 ------- 4 5.0 0.0 -1 34
r 0.060819 2 4 ping 64 ------- 2 1.0 4.0 -1 9
+ 0.060819 4 2 ping 64 ------- 3 4.0 1.0 -1 35
- 0.060819 4 2 ping 64 ------- 3 4.0 1.0 -1 35
r 0.060922 1 3 ping 64 ------- 2 1.0 4.0 -1 24
+ 0.060922 3 2 ping 64 ------- 2 1.0 4.0 -1 24
- 0.060922 3 2 ping 64 ------- 2 1.0 4.0 -1 24
r 0.060922 0 2 ping 64 ------- 1 0.0 5.0 -1 25
+ 0.060922 2 3 ping 64 ------- 1 0.0 5.0 -1 25
- 0.060922 2 3 ping 64 ------- 1 0.0 5.0 -1 25
r 0.061024 5 3 ping 64 ------- 4 5.0 0.0 -1 26
+ 0.061024 3 2 ping 64 ------- 4 5.0 0.0 -1 26
r 0.061024 4 2 ping 64 ------- 3 4.0 1.0 -1 27
+ 0.061024 2 3 ping 64 ------- 3 4.0 1.0 -1 27
r 0.061126 3 2 ping 64 ------- 2 1.0 4.0 -1 16
+ 0.061126 2 4 ping 64 ------- 2 1.0 4.0 -1 16
- 0.061126 2 4 ping 64 ------- 2 1.0 4.0 -1 16
r 0.061126 2 3 ping 64 ------- 1 0.0 5.0 -1 17
+ 0.061126 3 5 ping 64 ------- 1 0.0 5.0 -1 17
- 0.061126 3 5 ping 64 ------- 1 0.0 5.0 -1 17
- 0.061126 3 2 ping 64 ------- 4 5.0 0.0 -1 26
- 0.061126 2 3 ping 64 ------- 3 4.0 1.0 -1 27
r 0.061331 3 2 ping 64 ------- 4 5.0 0.0 -1 18
+ 0.061331 2 0 ping 64 ------- 4 5.0 0.0 -1 18
- 0.061331 2 0 ping 64 ------- 4 5.0 0.0 -1 18
r 0.061331 2 3 ping 64 ------- 3 4.0 1.0 -1 19
+ 0.061331 3 1 ping 64 ------- 3 4.0 1.0 -1 19
- 0.061331 3 1 ping 64 ------- 3 4.0 1.0 -1 19
+ 0.07 0 2 ping 64 ------- 1 0.0 5.0 -1 36
- 0.07 0 2 ping 64 ------- 1 0.0 5.0 -1 36
+ 0.07 1 3 ping 64 ------- 2 1.0 4.0 -1 37
- 0.07 1 3 ping 64 ------- 2 1.0 4.0 -1 37
+ 0.07 4 2 ping 64 ------- 3 4.0 1.0 -1 38
- 0.07 4 2 ping 64 ------- 3 4.0 1.0 -1 38
+ 0.07 5 3 ping 64 ------- 4 5.0 0.0 -1 39
- 0.07 5 3 ping 64 ------- 4 5.0 0.0 -1 39
r 0.070205 4 2 ping 64 ------- 3 4.0 1.0 -1 30
+ 0.070205 2 3 ping 64 ------- 3 4.0 1.0 -1 30
- 0.070205 2 3 ping 64 ------- 3 4.0 1.0 -1 30
r 0.070205 5 3 ping 64 ------- 4 5.0 0.0 -1 31
+ 0.070205 3 2 ping 64 ------- 4 5.0 0.0 -1 31
- 0.070205 3 2 ping 64 ------- 4 5.0 0.0 -1 31
r 0.070256 0 2 ping 64 ------- 1 0.0 5.0 -1 28
+ 0.070256 2 3 ping 64 ------- 1 0.0 5.0 -1 28
r 0.070256 1 3 ping 64 ------- 2 1.0 4.0 -1 29
+ 0.070256 3 2 ping 64 ------- 2 1.0 4.0 -1 29
r 0.07041 2 3 ping 64 ------- 3 4.0 1.0 -1 22
+ 0.07041 3 1 ping 64 ------- 3 4.0 1.0 -1 22
- 0.07041 3 1 ping 64 ------- 3 4.0 1.0 -1 22
r 0.07041 3 2 ping 64 ------- 4 5.0 0.0 -1 23
+ 0.07041 2 0 ping 64 ------- 4 5.0 0.0 -1 23
- 0.07041 2 0 ping 64 ------- 4 5.0 0.0 -1 23
- 0.07041 2 3 ping 64 ------- 1 0.0 5.0 -1 28
- 0.07041 3 2 ping 64 ------- 2 1.0 4.0 -1 29
r 0.070614 2 3 ping 64 ------- 1 0.0 5.0 -1 20
+ 0.070614 3 5 ping 64 ------- 1 0.0 5.0 -1 20
- 0.070614 3 5 ping 64 ------- 1 0.0 5.0 -1 20
r 0.070614 3 2 ping 64 ------- 2 1.0 4.0 -1 21
+ 0.070614 2 4 ping 64 ------- 2 1.0 4.0 -1 21
- 0.070614 2 4 ping 64 ------- 2 1.0 4.0 -1 21
r 0.070666 3 1 ping 64 ------- 3 4.0 1.0 -1 14
+ 0.070666 1 3 ping 64 ------- 2 1.0 4.0 -1 40
- 0.070666 1 3 ping 64 ------- 2 1.0 4.0 -1 40
r 0.070666 2 0 ping 64 ------- 4 5.0 0.0 -1 15
+ 0.070666 0 2 ping 64 ------- 1 0.0 5.0 -1 41
- 0.070666 0 2 ping 64 ------- 1 0.0 5.0 -1 41
r 0.070819 3 5 ping 64 ------- 1 0.0 5.0 -1 12
+ 0.070819 5 3 ping 64 ------- 4 5.0 0.0 -1 42
- 0.070819 5 3 ping 64 ------- 4 5.0 0.0 -1 42
r 0.070819 2 4 ping 64 ------- 2 1.0 4.0 -1 13
+ 0.070819 4 2 ping 64 ------- 3 4.0 1.0 -1 43
- 0.070819 4 2 ping 64 ------- 3 4.0 1.0 -1 43
r 0.070922 1 3 ping 64 ------- 2 1.0 4.0 -1 32
+ 0.070922 3 2 ping 64 ------- 2 1.0 4.0 -1 32
- 0.070922 3 2 ping 64 ------- 2 1.0 4.0 -1 32
r 0.070922 0 2 ping 64 ------- 1 0.0 5.0 -1 33
+ 0.070922 2 3 ping 64 ------- 1 0.0 5.0 -1 33
- 0.070922 2 3 ping 64 ------- 1 0.0 5.0 -1 33
r 0.071024 5 3 ping 64 ------- 4 5.0 0.0 -1 34
+ 0.071024 3 2 ping 64 ------- 4 5.0 0.0 -1 34
r 0.071024 4 2 ping 64 ------- 3 4.0 1.0 -1 35
+ 0.071024 2 3 ping 64 ------- 3 4.0 1.0 -1 35
r 0.071126 3 2 ping 64 ------- 2 1.0 4.0 -1 24
+ 0.071126 2 4 ping 64 ------- 2 1.0 4.0 -1 24
- 0.071126 2 4 ping 64 ------- 2 1.0 4.0 -1 24
r 0.071126 2 3 ping 64 ------- 1 0.0 5.0 -1 25
+ 0.071126 3 5 ping 64 ------- 1 0.0 5.0 -1 25
- 0.071126 3 5 ping 64 ------- 1 0.0 5.0 -1 25
- 0.071126 3 2 ping 64 ------- 4 5.0 0.0 -1 34
- 0.071126 2 3 ping 64 ------- 3 4.0 1.0 -1 35
r 0.071331 2 4 ping 64 ------- 2 1.0 4.0 -1 16
r 0.071331 3 5 ping 64 ------- 1 0.0 5.0 -1 17
r 0.071331 3 2 ping 64 ------- 4 5.0 0.0 -1 26
+ 0.071331 2 0 ping 64 ------- 4 5.0 0.0 -1 26
- 0.071331 2 0 ping 64 ------- 4 5.0 0.0 -1 26
r 0.071331 2 3 ping 64 ------- 3 4.0 1.0 -1 27
+ 0.071331 3 1 ping 64 ------- 3 4.0 1.0 -1 27
- 0.071331 3 1 ping 64 ------- 3 4.0 1.0 -1 27
r 0.071587 2 0 ping 64 ------- 4 5.0 0.0 -1 18
r 0.071587 3 1 ping 64 ------- 3 4.0 1.0 -1 19
+ 0.08 0 2 ping 64 ------- 1 0.0 5.0 -1 44
- 0.08 0 2 ping 64 ------- 1 0.0 5.0 -1 44
+ 0.08 1 3 ping 64 ------- 2 1.0 4.0 -1 45
- 0.08 1 3 ping 64 ------- 2 1.0 4.0 -1 45
+ 0.08 4 2 ping 64 ------- 3 4.0 1.0 -1 46
- 0.08 4 2 ping 64 ------- 3 4.0 1.0 -1 46
+ 0.08 5 3 ping 64 ------- 4 5.0 0.0 -1 47
- 0.08 5 3 ping 64 ------- 4 5.0 0.0 -1 47
r 0.080205 4 2 ping 64 ------- 3 4.0 1.0 -1 38
+ 0.080205 2 3 ping 64 ------- 3 4.0 1.0 -1 38
- 0.080205 2 3 ping 64 ------- 3 4.0 1.0 -1 38
r 0.080205 5 3 ping 64 ------- 4 5.0 0.0 -1 39
+ 0.080205 3 2 ping 64 ------- 4 5.0 0.0 -1 39
- 0.080205 3 2 ping 64 ------- 4 5.0 0.0 -1 39
r 0.080256 0 2 ping 64 ------- 1 0.0 5.0 -1 36
+ 0.080256 2 3 ping 64 ------- 1 0.0 5.0 -1 36
r 0.080256 1 3 ping 64 ------- 2 1.0 4.0 -1 37
+ 0.080256 3 2 ping 64 ------- 2 1.0 4.0 -1 37
r 0.08041 2 3 ping 64 ------- 3 4.0 1.0 -1 30
+ 0.08041 3 1 ping 64 ------- 3 4.0 1.0 -1 30
- 0.08041 3 1 ping 64 ------- 3 4.0 1.0 -1 30
r 0.08041 3 2 ping 64 ------- 4 5.0 0.0 -1 31
+ 0.08041 2 0 ping 64 ------- 4 5.0 0.0 -1 31
- 0.08041 2 0 ping 64 ------- 4 5.0 0.0 -1 31
- 0.08041 2 3 ping 64 ------- 1 0.0 5.0 -1 36
- 0.08041 3 2 ping 64 ------- 2 1.0 4.0 -1 37
r 0.080614 2 3 ping 64 ------- 1 0.0 5.0 -1 28
+ 0.080614 3 5 ping 64 ------- 1 0.0 5.0 -1 28
- 0.080614 3 5 ping 64 ------- 1 0.0 5.0 -1 28
r 0.080614 3 2 ping 64 ------- 2 1.0 4.0 -1 29
+ 0.080614 2 4 ping 64 ------- 2 1.0 4.0 -1 29
- 0.080614 2 4 ping 64 ------- 2 1.0 4.0 -1 29
r 0.080666 3 1 ping 64 ------- 3 4.0 1.0 -1 22
+ 0.080666 1 3 ping 64 ------- 2 1.0 4.0 -1 48
- 0.080666 1 3 ping 64 ------- 2 1.0 4.0 -1 48
r 0.080666 2 0 ping 64 ------- 4 5.0 0.0 -1 23
+ 0.080666 0 2 ping 64 ------- 1 0.0 5.0 -1 49
- 0.080666 0 2 ping 64 ------- 1 0.0 5.0 -1 49
r 0.080819 3 5 ping 64 ------- 1 0.0 5.0 -1 20
+ 0.080819 5 3 ping 64 ------- 4 5.0 0.0 -1 50
- 0.080819 5 3 ping 64 ------- 4 5.0 0.0 -1 50
r 0.080819 2 4 ping 64 ------- 2 1.0 4.0 -1 21
+ 0.080819 4 2 ping 64 ------- 3 4.0 1.0 -1 51
- 0.080819 4 2 ping 64 ------- 3 4.0 1.0 -1 51
r 0.080922 1 3 ping 64 ------- 2 1.0 4.0 -1 40
+ 0.080922 3 2 ping 64 ------- 2 1.0 4.0 -1 40
- 0.080922 3 2 ping 64 ------- 2 1.0 4.0 -1 40
r 0.080922 0 2 ping 64 ------- 1 0.0 5.0 -1 41
+ 0.080922 2 3 ping 64 ------- 1 0.0 5.0 -1 41
- 0.080922 2 3 ping 64 ------- 1 0.0 5.0 -1 41
r 0.081024 5 3 ping 64 ------- 4 5.0 0.0 -1 42
+ 0.081024 3 2 ping 64 ------- 4 5.0 0.0 -1 42
r 0.081024 4 2 ping 64 ------- 3 4.0 1.0 -1 43
+ 0.081024 2 3 ping 64 ------- 3 4.0 1.0 -1 43
r 0.081126 3 2 ping 64 ------- 2 1.0 4.0 -1 32
+ 0.081126 2 4 ping 64 ------- 2 1.0 4.0 -1 32
- 0.081126 2 4 ping 64 ------- 2 1.0 4.0 -1 32
r 0.081126 2 3 ping 64 ------- 1 0.0 5.0 -1 33
+ 0.081126 3 5 ping 64 ------- 1 0.0 5.0 -1 33
- 0.081126 3 5 ping 64 ------- 1 0.0 5.0 -1 33
- 0.081126 3 2 ping 64 ------- 4 5.0 0.0 -1 42
- 0.081126 2 3 ping 64 ------- 3 4.0 1.0 -1 43
r 0.081331 2 4 ping 64 ------- 2 1.0 4.0 -1 24
r 0.081331 3 5 ping 64 ------- 1 0.0 5.0 -1 25
r 0.081331 3 2 ping 64 ------- 4 5.0 0.0 -1 34
+ 0.081331 2 0 ping 64 ------- 4 5.0 0.0 -1 34
- 0.081331 2 0 ping 64 ------- 4 5.0 0.0 -1 34
r 0.081331 2 3 ping 64 ------- 3 4.0 1.0 -1 35
+ 0.081331 3 1 ping 64 ------- 3 4.0 1.0 -1 35
- 0.081331 3 1 ping 64 ------- 3 4.0 1.0 -1 35
r 0.081587 2 0 ping 64 ------- 4 5.0 0.0 -1 26
r 0.081587 3 1 ping 64 ------- 3 4.0 1.0 -1 27
+ 0.09 0 2 ping 64 ------- 1 0.0 5.0 -1 52
- 0.09 0 2 ping 64 ------- 1 0.0 5.0 -1 52
+ 0.09 1 3 ping 64 ------- 2 1.0 4.0 -1 53
- 0.09 1 3 ping 64 ------- 2 1.0 4.0 -1 53
+ 0.09 4 2 ping 64 ------- 3 4.0 1.0 -1 54
- 0.09 4 2 ping 64 ------- 3 4.0 1.0 -1 54
+ 0.09 5 3 ping 64 ------- 4 5.0 0.0 -1 55
- 0.09 5 3 ping 64 ------- 4 5.0 0.0 -1 55
r 0.090205 4 2 ping 64 ------- 3 4.0 1.0 -1 46
+ 0.090205 2 3 ping 64 ------- 3 4.0 1.0 -1 46
- 0.090205 2 3 ping 64 ------- 3 4.0 1.0 -1 46
r 0.090205 5 3 ping 64 ------- 4 5.0 0.0 -1 47
+ 0.090205 3 2 ping 64 ------- 4 5.0 0.0 -1 47
- 0.090205 3 2 ping 64 ------- 4 5.0 0.0 -1 47
r 0.090256 0 2 ping 64 ------- 1 0.0 5.0 -1 44
+ 0.090256 2 3 ping 64 ------- 1 0.0 5.0 -1 44
r 0.090256 1 3 ping 64 ------- 2 1.0 4.0 -1 45
+ 0.090256 3 2 ping 64 ------- 2 1.0 4.0 -1 45
r 0.09041 2 3 ping 64 ------- 3 4.0 1.0 -1 38
+ 0.09041 3 1 ping 64 ------- 3 4.0 1.0 -1 38
- 0.09041 3 1 ping 64 ------- 3 4.0 1.0 -1 38
r 0.09041 3 2 ping 64 ------- 4 5.0 0.0 -1 39
+ 0.09041 2 0 ping 64 ------- 4 5.0 0.0 -1 39
- 0.09041 2 0 ping 64 ------- 4 5.0 0.0 -1 39
- 0.09041 2 3 ping 64 ------- 1 0.0 5.0 -1 44
- 0.09041 3 2 ping 64 ------- 2 1.0 4.0 -1 45
r 0.090614 2 3 ping 64 ------- 1 0.0 5.0 -1 36
+ 0.090614 3 5 ping 64 ------- 1 0.0 5.0 -1 36
- 0.090614 3 5 ping 64 ------- 1 0.0 5.0 -1 36
r 0.090614 3 2 ping 64 ------- 2 1.0 4.0 -1 37
+ 0.090614 2 4 ping 64 ------- 2 1.0 4.0 -1 37
- 0.090614 2 4 ping 64 ------- 2 1.0 4.0 -1 37
r 0.090666 3 1 ping 64 ------- 3 4.0 1.0 -1 30
+ 0.090666 1 3 ping 64 ------- 2 1.0 4.0 -1 56
- 0.090666 1 3 ping 64 ------- 2 1.0 4.0 -1 56
r 0.090666 2 0 ping 64 ------- 4 5.0 0.0 -1 31
+ 0.090666 0 2 ping 64 ------- 1 0.0 5.0 -1 57
- 0.090666 0 2 ping 64 ------- 1 0.0 5.0 -1 57
r 0.090819 3 5 ping 64 ------- 1 0.0 5.0 -1 28
+ 0.090819 5 3 ping 64 ------- 4 5.0 0.0 -1 58
- 0.090819 5 3 ping 64 ------- 4 5.0 0.0 -1 58
r 0.090819 2 4 ping 64 ------- 2 1.0 4.0 -1 29
+ 0.090819 4 2 ping 64 ------- 3 4.0 1.0 -1 59
- 0.090819 4 2 ping 64 ------- 3 4.0 1.0 -1 59
r 0.090922 1 3 ping 64 ------- 2 1.0 4.0 -1 48
+ 0.090922 3 2 ping 64 ------- 2 1.0 4.0 -1 48
- 0.090922 3 2 ping 64 ------- 2 1.0 4.0 -1 48
r 0.090922 0 2 ping 64 ------- 1 0.0 5.0 -1 49
+ 0.090922 2 3 ping 64 ------- 1 0.0 5.0 -1 49
- 0.090922 2 3 ping 64 ------- 1 0.0 5.0 -1 49
r 0.091024 5 3 ping 64 ------- 4 5.0 0.0 -1 50
+ 0.091024 3 2 ping 64 ------- 4 5.0 0.0 -1 50
r 0.091024 4 2 ping 64 ------- 3 4.0 1.0 -1 51
+ 0.091024 2 3 ping 64 ------- 3 4.0 1.0 -1 51
r 0.091126 3 2 ping 64 ------- 2 1.0 4.0 -1 40
+ 0.091126 2 4 ping 64 ------- 2 1.0 4.0 -1 40
- 0.091126 2 4 ping 64 ------- 2 1.0 4.0 -1 40
r 0.091126 2 3 ping 64 ------- 1 0.0 5.0 -1 41
+ 0.091126 3 5 ping 64 ------- 1 0.0 5.0 -1 41
- 0.091126 3 5 ping 64 ------- 1 0.0 5.0 -1 41
- 0.091126 3 2 ping 64 ------- 4 5.0 0.0 -1 50
- 0.091126 2 3 ping 64 ------- 3 4.0 1.0 -1 51
r 0.091331 2 4 ping 64 ------- 2 1.0 4.0 -1 32
r 0.091331 3 5 ping 64 ------- 1 0.0 5.0 -1 33
r 0.091331 3 2 ping 64 ------- 4 5.0 0.0 -1 42
+ 0.091331 2 0 ping 64 ------- 4 5.0 0.0 -1 42
- 0.091331 2 0 ping 64 ------- 4 5.0 0.0 -1 42
r 0.091331 2 3 ping 64 ------- 3 4.0 1.0 -1 43
+ 0.091331 3 1 ping 64 ------- 3 4.0 1.0 -1 43
- 0.091331 3 1 ping 64 ------- 3 4.0 1.0 -1 43
r 0.091587 2 0 ping 64 ------- 4 5.0 0.0 -1 34
r 0.091587 3 1 ping 64 ------- 3 4.0 1.0 -1 35
+ 0.1 0 2 ping 64 ------- 1 0.0 5.0 -1 60
- 0.1 0 2 ping 64 ------- 1 0.0 5.0 -1 60
+ 0.1 1 3 ping 64 ------- 2 1.0 4.0 -1 61
- 0.1 1 3 ping 64 ------- 2 1.0 4.0 -1 61
+ 0.1 4 2 ping 64 ------- 3 4.0 1.0 -1 62
- 0.1 4 2 ping 64 ------- 3 4.0 1.0 -1 62
+ 0.1 5 3 ping 64 ------- 4 5.0 0.0 -1 63
- 0.1 5 3 ping 64 ------- 4 5.0 0.0 -1 63
r 0.100205 4 2 ping 64 ------- 3 4.0 1.0 -1 54
+ 0.100205 2 3 ping 64 ------- 3 4.0 1.0 -1 54
- 0.100205 2 3 ping 64 ------- 3 4.0 1.0 -1 54
r 0.100205 5 3 ping 64 ------- 4 5.0 0.0 -1 55
+ 0.100205 3 2 ping 64 ------- 4 5.0 0.0 -1 55
- 0.100205 3 2 ping 64 ------- 4 5.0 0.0 -1 55
r 0.100256 0 2 ping 64 ------- 1 0.0 5.0 -1 52
+ 0.100256 2 3 ping 64 ------- 1 0.0 5.0 -1 52
r 0.100256 1 3 ping 64 ------- 2 1.0 4.0 -1 53
+ 0.100256 3 2 ping 64 ------- 2 1.0 4.0 -1 53
r 0.10041 2 3 ping 64 ------- 3 4.0 1.0 -1 46
+ 0.10041 3 1 ping 64 ------- 3 4.0 1.0 -1 46
- 0.10041 3 1 ping 64 ------- 3 4.0 1.0 -1 46
r 0.10041 3 2 ping 64 ------- 4 5.0 0.0 -1 47
+ 0.10041 2 0 ping 64 ------- 4 5.0 0.0 -1 47
- 0.10041 2 0 ping 64 ------- 4 5.0 0.0 -1 47
- 0.10041 2 3 ping 64 ------- 1 0.0 5.0 -1 52
- 0.10041 3 2 ping 64 ------- 2 1.0 4.0 -1 53
r 0.100614 2 3 ping 64 ------- 1 0.0 5.0 -1 44
+ 0.100614 3 5 ping 64 ------- 1 0.0 5.0 -1 44
- 0.100614 3 5 ping 64 ------- 1 0.0 5.0 -1 44
r 0.100614 3 2 ping 64 ------- 2 1.0 4.0 -1 45
+ 0.100614 2 4 ping 64 ------- 2 1.0 4.0 -1 45
- 0.100614 2 4 ping 64 ------- 2 1.0 4.0 -1 45
r 0.100666 3 1 ping 64 ------- 3 4.0 1.0 -1 38
+ 0.100666 1 3 ping 64 ------- 2 1.0 4.0 -1 64
- 0.100666 1 3 ping 64 ------- 2 1.0 4.0 -1 64
r 0.100666 2 0 ping 64 ------- 4 5.0 0.0 -1 39
+ 0.100666 0 2 ping 64 ------- 1 0.0 5.0 -1 65
- 0.100666 0 2 ping 64 ------- 1 0.0 5.0 -1 65
r 0.100819 3 5 ping 64 ------- 1 0.0 5.0 -1 36
+ 0.100819 5 3 ping 64 ------- 4 5.0 0.0 -1 66
- 0.100819 5 3 ping 64 ------- 4 5.0 0.0 -1 66
r 0.100819 2 4 ping 64 ------- 2 1.0 4.0 -1 37
+ 0.100819 4 2 ping 64 ------- 3 4.0 1.0 -1 67
- 0.100819 4 2 ping 64 ------- 3 4.0 1.0 -1 67
r 0.100922 1 3 ping 64 ------- 2 1.0 4.0 -1 56
+ 0.100922 3 2 ping 64 ------- 2 1.0 4.0 -1 56
- 0.100922 3 2 ping 64 ------- 2 1.0 4.0 -1 56
r 0.100922 0 2 ping 64 ------- 1 0.0 5.0 -1 57
+ 0.100922 2 3 ping 64 ------- 1 0.0 5.0 -1 57
- 0.100922 2 3 ping 64 ------- 1 0.0 5.0 -1 57
r 0.101024 5 3 ping 64 ------- 4 5.0 0.0 -1 58
+ 0.101024 3 2 ping 64 ------- 4 5.0 0.0 -1 58
r 0.101024 4 2 ping 64 ------- 3 4.0 1.0 -1 59
+ 0.101024 2 3 ping 64 ------- 3 4.0 1.0 -1 59
r 0.101126 3 2 ping 64 ------- 2 1.0 4.0 -1 48
+ 0.101126 2 4 ping 64 ------- 2 1.0 4.0 -1 48
- 0.101126 2 4 ping 64 ------- 2 1.0 4.0 -1 48
r 0.101126 2 3 ping 64 ------- 1 0.0 5.0 -1 49
+ 0.101126 3 5 ping 64 ------- 1 0.0 5.0 -1 49
- 0.101126 3 5 ping 64 ------- 1 0.0 5.0 -1 49
- 0.101126 3 2 ping 64 ------- 4 5.0 0.0 -1 58
- 0.101126 2 3 ping 64 ------- 3 4.0 1.0 -1 59
r 0.101331 2 4 ping 64 ------- 2 1.0 4.0 -1 40
r 0.101331 3 5 ping 64 ------- 1 0.0 5.0 -1 41
r 0.101331 3 2 ping 64 ------- 4 5.0 0.0 -1 50
+ 0.101331 2 0 ping 64 ------- 4 5.0 0.0 -1 50
- 0.101331 2 0 ping 64 ------- 4 5.0 0.0 -1 50
r 0.101331 2 3 ping 64 ------- 3 4.0 1.0 -1 51
+ 0.101331 3 1 ping 64 ------- 3 4.0 1.0 -1 51
- 0.101331 3 1 ping 64 ------- 3 4.0 1.0 -1 51
r 0.101587 2 0 ping 64 ------- 4 5.0 0.0 -1 42
r 0.101587 3 1 ping 64 ------- 3 4.0 1.0 -1 43
+ 0.11 0 2 ping 64 ------- 1 0.0 5.0 -1 68
- 0.11 0 2 ping 64 ------- 1 0.0 5.0 -1 68
+ 0.11 1 3 ping 64 ------- 2 1.0 4.0 -1 69
- 0.11 1 3 ping 64 ------- 2 1.0 4.0 -1 69
+ 0.11 4 2 ping 64 ------- 3 4.0 1.0 -1 70
- 0.11 4 2 ping 64 ------- 3 4.0 1.0 -1 70
+ 0.11 5 3 ping 64 ------- 4 5.0 0.0 -1 71
- 0.11 5 3 ping 64 ------- 4 5.0 0.0 -1 71
r 0.110205 4 2 ping 64 ------- 3 4.0 1.0 -1 62
+ 0.110205 2 3 ping 64 ------- 3 4.0 1.0 -1 62
- 0.110205 2 3 ping 64 ------- 3 4.0 1.0 -1 62
r 0.110205 5 3 ping 64 ------- 4 5.0 0.0 -1 63
+ 0.110205 3 2 ping 64 ------- 4 5.0 0.0 -1 63
- 0.110205 3 2 ping 64 ------- 4 5.0 0.0 -1 63
r 0.110256 0 2 ping 64 ------- 1 0.0 5.0 -1 60
+ 0.110256 2 3 ping 64 ------- 1 0.0 5.0 -1 60
r 0.110256 1 3 ping 64 ------- 2 1.0 4.0 -1 61
+ 0.110256 3 2 ping 64 ------- 2 1.0 4.0 -1 61
r 0.11041 2 3 ping 64 ------- 3 4.0 1.0 -1 54
+ 0.11041 3 1 ping 64 ------- 3 4.0 1.0 -1 54
- 0.11041 3 1 ping 64 ------- 3 4.0 1.0 -1 54
r 0.11041 3 2 ping 64 ------- 4 5.0 0.0 -1 55
+ 0.11041 2 0 ping 64 ------- 4 5.0 0.0 -1 55
- 0.11041 2 0 ping 64 ------- 4 5.0 0.0 -1 55
- 0.11041 2 3 ping 64 ------- 1 0.0 5.0 -1 60
- 0.11041 3 2 ping 64 ------- 2 1.0 4.0 -1 61
r 0.110614 2 3 ping 64 ------- 1 0.0 5.0 -1 52
+ 0.110614 3 5 ping 64 ------- 1 0.0 5.0 -1 52
- 0.110614 3 5 ping 64 ------- 1 0.0 5.0 -1 52
r 0.110614 3 2 ping 64 ------- 2 1.0 4.0 -1 53
+ 0.110614 2 4 ping 64 ------- 2 1.0 4.0 -1 53
- 0.110614 2 4 ping 64 ------- 2 1.0 4.0 -1 53
r 0.110666 3 1 ping 64 ------- 3 4.0 1.0 -1 46
+ 0.110666 1 3 ping 64 ------- 2 1.0 4.0 -1 72
- 0.110666 1 3 ping 64 ------- 2 1.0 4.0 -1 72
r 0.110666 2 0 ping 64 ------- 4 5.0 0.0 -1 47
+ 0.110666 0 2 ping 64 ------- 1 0.0 5.0 -1 73
- 0.110666 0 2 ping 64 ------- 1 0.0 5.0 -1 73
r 0.110819 3 5 ping 64 ------- 1 0.0 5.0 -1 44
+ 0.110819 5 3 ping 64 ------- 4 5.0 0.0 -1 74
- 0.110819 5 3 ping 64 ------- 4 5.0 0.0 -1 74
r 0.110819 2 4 ping 64 ------- 2 1.0 4.0 -1 45
+ 0.110819 4 2 ping 64 ------- 3 4.0 1.0 -1 75
- 0.110819 4 2 ping 64 ------- 3 4.0 1.0 -1 75
r 0.110922 1 3 ping 64 ------- 2 1.0 4.0 -1 64
+ 0.110922 3 2 ping 64 ------- 2 1.0 4.0 -1 64
- 0.110922 3 2 ping 64 ------- 2 1.0 4.0 -1 64
r 0.110922 0 2 ping 64 ------- 1 0.0 5.0 -1 65
+ 0.110922 2 3 ping 64 ------- 1 0.0 5.0 -1 65
- 0.110922 2 3 ping 64 ------- 1 0.0 5.0 -1 65
r 0.111024 5 3 ping 64 ------- 4 5.0 0.0 -1 66
+ 0.111024 3 2 ping 64 ------- 4 5.0 0.0 -1 66
r 0.111024 4 2 ping 64 ------- 3 4.0 1.0 -1 67
+ 0.111024 2 3 ping 64 ------- 3 4.0 1.0 -1 67
r 0.111126 3 2 ping 64 ------- 2 1.0 4.0 -1 56
+ 0.111126 2 4 ping 64 ------- 2 1.0 4.0 -1 56
- 0.111126 2 4 ping 64 ------- 2 1.0 4.0 -1 56
r 0.111126 2 3 ping 64 ------- 1 0.0 5.0 -1 57
+ 0.111126 3 5 ping 64 ------- 1 0.0 5.0 -1 57
- 0.111126 3 5 ping 64 ------- 1 0.0 5.0 -1 57
- 0.111126 3 2 ping 64 ------- 4 5.0 0.0 -1 66
- 0.111126 2 3 ping 64 ------- 3 4.0 1.0 -1 67
r 0.111331 2 4 ping 64 ------- 2 1.0 4.0 -1 48
r 0.111331 3 5 ping 64 ------- 1 0.0 5.0 -1 49
r 0.111331 3 2 ping 64 ------- 4 5.0 0.0 -1 58
+ 0.111331 2 0 ping 64 ------- 4 5.0 0.0 -1 58
- 0.111331 2 0 ping 64 ------- 4 5.0 0.0 -1 58
r 0.111331 2 3 ping 64 ------- 3 4.0 1.0 -1 59
+ 0.111331 3 1 ping 64 ------- 3 4.0 1.0 -1 59
- 0.111331 3 1 ping 64 ------- 3 4.0 1.0 -1 59
r 0.111587 2 0 ping 64 ------- 4 5.0 0.0 -1 50
r 0.111587 3 1 ping 64 ------- 3 4.0 1.0 -1 51
+ 0.12 0 2 ping 64 ------- 1 0.0 5.0 -1 76
- 0.12 0 2 ping 64 ------- 1 0.0 5.0 -1 76
+ 0.12 1 3 ping 64 ------- 2 1.0 4.0 -1 77
- 0.12 1 3 ping 64 ------- 2 1.0 4.0 -1 77
+ 0.12 4 2 ping 64 ------- 3 4.0 1.0 -1 78
- 0.12 4 2 ping 64 ------- 3 4.0 1.0 -1 78
+ 0.12 5 3 ping 64 ------- 4 5.0 0.0 -1 79
- 0.12 5 3 ping 64 ------- 4 5.0 0.0 -1 79
r 0.120205 4 2 ping 64 ------- 3 4.0 1.0 -1 70
+ 0.120205 2 3 ping 64 ------- 3 4.0 1.0 -1 70
- 0.120205 2 3 ping 64 ------- 3 4.0 1.0 -1 70
r 0.120205 5 3 ping 64 ------- 4 5.0 0.0 -1 71
+ 0.120205 3 2 ping 64 ------- 4 5.0 0.0 -1 71
- 0.120205 3 2 ping 64 ------- 4 5.0 0.0 -1 71
r 0.120256 0 2 ping 64 ------- 1 0.0 5.0 -1 68
+ 0.120256 2 3 ping 64 ------- 1 0.0 5.0 -1 68
r 0.120256 1 3 ping 64 ------- 2 1.0 4.0 -1 69
+ 0.120256 3 2 ping 64 ------- 2 1.0 4.0 -1 69
r 0.12041 2 3 ping 64 ------- 3 4.0 1.0 -1 62
+ 0.12041 3 1 ping 64 ------- 3 4.0 1.0 -1 62
- 0.12041 3 1 ping 64 ------- 3 4.0 1.0 -1 62
r 0.12041 3 2 ping 64 ------- 4 5.0 0.0 -1 63
+ 0.12041 2 0 ping 64 ------- 4 5.0 0.0 -1 63
- 0.12041 2 0 ping 64 ------- 4 5.0 0.0 -1 63
- 0.12041 2 3 ping 64 ------- 1 0.0 5.0 -1 68
- 0.12041 3 2 ping 64 ------- 2 1.0 4.0 -1 69
r 0.120614 2 3 ping 64 ------- 1 0.0 5.0 -1 60
+ 0.120614 3 5 ping 64 ------- 1 0.0 5.0 -1 60
- 0.120614 3 5 ping 64 ------- 1 0.0 5.0 -1 60
r 0.120614 3 2 ping 64 ------- 2 1.0 4.0 -1 61
+ 0.120614 2 4 ping 64 ------- 2 1.0 4.0 -1 61
- 0.120614 2 4 ping 64 ------- 2 1.0 4.0 -1 61
r 0.120666 3 1 ping 64 ------- 3 4.0 1.0 -1 54
+ 0.120666 1 3 ping 64 ------- 2 1.0 4.0 -1 80
- 0.120666 1 3 ping 64 ------- 2 1.0 4.0 -1 80
r 0.120666 2 0 ping 64 ------- 4 5.0 0.0 -1 55
+ 0.120666 0 2 ping 64 ------- 1 0.0 5.0 -1 81
- 0.120666 0 2 ping 64 ------- 1 0.0 5.0 -1 81
r 0.120819 3 5 ping 64 ------- 1 0.0 5.0 -1 52
+ 0.120819 5 3 ping 64 ------- 4 5.0 0.0 -1 82
- 0.120819 5 3 ping 64 ------- 4 5.0 0.0 -1 82
r 0.120819 2 4 ping 64 ------- 2 1.0 4.0 -1 53
+ 0.120819 4 2 ping 64 ------- 3 4.0 1.0 -1 83
- 0.120819 4 2 ping 64 ------- 3 4.0 1.0 -1 83
r 0.120922 1 3 ping 64 ------- 2 1.0 4.0 -1 72
+ 0.120922 3 2 ping 64 ------- 2 1.0 4.0 -1 72
- 0.120922 3 2 ping 64 ------- 2 1.0 4.0 -1 72
r 0.120922 0 2 ping 64 ------- 1 0.0 5.0 -1 73
+ 0.120922 2 3 ping 64 ------- 1 0.0 5.0 -1 73
- 0.120922 2 3 ping 64 ------- 1 0.0 5.0 -1 73
r 0.121024 5 3 ping 64 ------- 4 5.0 0.0 -1 74
+ 0.121024 3 2 ping 64 ------- 4 5.0 0.0 -1 74
r 0.121024 4 2 ping 64 ------- 3 4.0 1.0 -1 75
+ 0.121024 2 3 ping 64 ------- 3 4.0 1.0 -1 75
r 0.121126 3 2 ping 64 ------- 2 1.0 4.0 -1 64
+ 0.121126 2 4 ping 64 ------- 2 1.0 4.0 -1 64
- 0.121126 2 4 ping 64 ------- 2 1.0 4.0 -1 64
r 0.121126 2 3 ping 64 ------- 1 0.0 5.0 -1 65
+ 0.121126 3 5 ping 64 ------- 1 0.0 5.0 -1 65
- 0.121126 3 5 ping 64 ------- 1 0.0 5.0 -1 65
- 0.121126 3 2 ping 64 ------- 4 5.0 0.0 -1 74
- 0.121126 2 3 ping 64 ------- 3 4.0 1.0 -1 75